/*--------------------------------*- C++ -*----------------------------------*\
  =========                 |
  \\      /  F ield         | OpenFOAM: The Open Source CFD Toolbox
   \\    /   O peration     | Website:  https://openfoam.org
    \\  /    A nd           | Version:  13
     \\/     M anipulation  |
\*---------------------------------------------------------------------------*/
FoamFile
{
    format      ascii;
    class       volScalarField;
    location    "21";
    object      p;
}
// * * * * * * * * * * * * * * * * * * * * * * * * * * * * * * * * * * * * * //

dimensions      [0 2 -2 0 0 0 0];

internalField   nonuniform List<scalar> 
21440
(
-0.236254
-0.237845
-0.239068
-0.240209
-0.24141
-0.242642
-0.243917
-0.245255
-0.246695
-0.248283
-0.250074
-0.252125
-0.254492
-0.257222
-0.260357
-0.263929
-0.267954
-0.272418
-0.277275
-0.28244
-0.287786
-0.293108
-0.298155
-0.302518
-0.306101
-0.308592
-0.309566
-0.308789
-0.236172
-0.237697
-0.238857
-0.239938
-0.241084
-0.242275
-0.243534
-0.244896
-0.246415
-0.248158
-0.250199
-0.252617
-0.255486
-0.258874
-0.26284
-0.267422
-0.272629
-0.278422
-0.28472
-0.291389
-0.298235
-0.305007
-0.31138
-0.316941
-0.321326
-0.324108
-0.324885
-0.323267
-0.23626
-0.237695
-0.238774
-0.239782
-0.240863
-0.242002
-0.243234
-0.244607
-0.24619
-0.248068
-0.250332
-0.253081
-0.256406
-0.26039
-0.265102
-0.270581
-0.276824
-0.283773
-0.291314
-0.299264
-0.307367
-0.315298
-0.322669
-0.329036
-0.333948
-0.336934
-0.337464
-0.335039
-0.236505
-0.237825
-0.238806
-0.239728
-0.240731
-0.241805
-0.242997
-0.244364
-0.245991
-0.247975
-0.250426
-0.253455
-0.257168
-0.261656
-0.266992
-0.273207
-0.280285
-0.288146
-0.296639
-0.30554
-0.314542
-0.323264
-0.331265
-0.338057
-0.343128
-0.345955
-0.346111
-0.342735
-0.236894
-0.238076
-0.238939
-0.239757
-0.240668
-0.241661
-0.242795
-0.244137
-0.24578
-0.247837
-0.250428
-0.253676
-0.257695
-0.262578
-0.268395
-0.275166
-0.282857
-0.291362
-0.300497
-0.310003
-0.319531
-0.32866
-0.336914
-0.343767
-0.348675
-0.351083
-0.350552
-0.346205
-0.237408
-0.23843
-0.239156
-0.239851
-0.24065
-0.241542
-0.242598
-0.243891
-0.245521
-0.247612
-0.250292
-0.253691
-0.257925
-0.263088
-0.269237
-0.276381
-0.284463
-0.293352
-0.302836
-0.312621
-0.322325
-0.331504
-0.33965
-0.346216
-0.350639
-0.352345
-0.350956
-0.345356
-0.23803
-0.238872
-0.239437
-0.239986
-0.240651
-0.241424
-0.242379
-0.243596
-0.245182
-0.247266
-0.249983
-0.253466
-0.257825
-0.263155
-0.269498
-0.276845
-0.285116
-0.294157
-0.303727
-0.313499
-0.323066
-0.331952
-0.339638
-0.34556
-0.349167
-0.349865
-0.347386
-0.340318
-0.238744
-0.239385
-0.239765
-0.240142
-0.240647
-0.241283
-0.242113
-0.243227
-0.244737
-0.246776
-0.249482
-0.252985
-0.257396
-0.262794
-0.26921
-0.276613
-0.284902
-0.293888
-0.303301
-0.312783
-0.321906
-0.330175
-0.337061
-0.341992
-0.344422
-0.343782
-0.339943
-0.331359
-0.239531
-0.239952
-0.240122
-0.240301
-0.240625
-0.241097
-0.241778
-0.242766
-0.244174
-0.246136
-0.248791
-0.252265
-0.256664
-0.262052
-0.26844
-0.275772
-0.283915
-0.292651
-0.301674
-0.310607
-0.318997
-0.326322
-0.332027
-0.335528
-0.336288
-0.333868
-0.328433
-0.31879
-0.240379
-0.240562
-0.240496
-0.240457
-0.240568
-0.240849
-0.241364
-0.242207
-0.243492
-0.245355
-0.247931
-0.251343
-0.255679
-0.260987
-0.267253
-0.274391
-0.282235
-0.290539
-0.298962
-0.307078
-0.314379
-0.320279
-0.324216
-0.325741
-0.32454
-0.320379
-0.313553
-0.303337
-0.241281
-0.241205
-0.240885
-0.240593
-0.240465
-0.240536
-0.240868
-0.241553
-0.242706
-0.244457
-0.246938
-0.250256
-0.254485
-0.259649
-0.26571
-0.272547
-0.27995
-0.287616
-0.29512
-0.30195
-0.307595
-0.311565
-0.313431
-0.312885
-0.309811
-0.304215
-0.296465
-0.286266
-0.242233
-0.241879
-0.241284
-0.240704
-0.240317
-0.24016
-0.2403
-0.240823
-0.241839
-0.243472
-0.245842
-0.249042
-0.253132
-0.258103
-0.263872
-0.270262
-0.27696
-0.283574
-0.289665
-0.294767
-0.298431
-0.300296
-0.300115
-0.297778
-0.293331
-0.286912
-0.27886
-0.269155
-0.243237
-0.242589
-0.241687
-0.240796
-0.24013
-0.239734
-0.239678
-0.240039
-0.240918
-0.242427
-0.244681
-0.247755
-0.251667
-0.256357
-0.261633
-0.267235
-0.272828
-0.278011
-0.282366
-0.285521
-0.287173
-0.287129
-0.285313
-0.28175
-0.276558
-0.269897
-0.26202
-0.252986
-0.244301
-0.24334
-0.2421
-0.240878
-0.23992
-0.239277
-0.239024
-0.239225
-0.23997
-0.241363
-0.243501
-0.246415
-0.250011
-0.254159
-0.258643
-0.263146
-0.267321
-0.27082
-0.273335
-0.274635
-0.274574
-0.273096
-0.270218
-0.266009
-0.260579
-0.254045
-0.246578
-0.238214
-0.245439
-0.24414
-0.242543
-0.240966
-0.239706
-0.238812
-0.238365
-0.238412
-0.239035
-0.240321
-0.242273
-0.244844
-0.247918
-0.25128
-0.254672
-0.257801
-0.260386
-0.262194
-0.263053
-0.262858
-0.261567
-0.25918
-0.255733
-0.251276
-0.245884
-0.239621
-0.232615
-0.224858
-0.246669
-0.244997
-0.243038
-0.241082
-0.239511
-0.238369
-0.237729
-0.237633
-0.238132
-0.239221
-0.240848
-0.24289
-0.245174
-0.247473
-0.249556
-0.251215
-0.25228
-0.252636
-0.25221
-0.250967
-0.248894
-0.245992
-0.242274
-0.237764
-0.232504
-0.226533
-0.219959
-0.21274
-0.24802
-0.24593
-0.243609
-0.241252
-0.239365
-0.237973
-0.23715
-0.236901
-0.237198
-0.23796
-0.239057
-0.240321
-0.241573
-0.242636
-0.24337
-0.243672
-0.243473
-0.24273
-0.24141
-0.239486
-0.236934
-0.233737
-0.229887
-0.225392
-0.22028
-0.214579
-0.208394
-0.201652
-0.249522
-0.246965
-0.244275
-0.241507
-0.239297
-0.237655
-0.236637
-0.236181
-0.236149
-0.236381
-0.236708
-0.23697
-0.237048
-0.236867
-0.236386
-0.235584
-0.234441
-0.232929
-0.231008
-0.228635
-0.225769
-0.222379
-0.218453
-0.213993
-0.209027
-0.203575
-0.197739
-0.191422
-0.251211
-0.248135
-0.245049
-0.241886
-0.239324
-0.237435
-0.236181
-0.235398
-0.234843
-0.234314
-0.233656
-0.232788
-0.231699
-0.230413
-0.228956
-0.227334
-0.225522
-0.223474
-0.221129
-0.21843
-0.21533
-0.211798
-0.207824
-0.203413
-0.19859
-0.193369
-0.187853
-0.181913
-0.253106
-0.249496
-0.245942
-0.242411
-0.239469
-0.237303
-0.235732
-0.23444
-0.233133
-0.231626
-0.229854
-0.227862
-0.22574
-0.22357
-0.221386
-0.219173
-0.216879
-0.21443
-0.211757
-0.208798
-0.205512
-0.201874
-0.197877
-0.193526
-0.188846
-0.183843
-0.17862
-0.173018
-0.255238
-0.251092
-0.246985
-0.243068
-0.239765
-0.237232
-0.235198
-0.233177
-0.230893
-0.228264
-0.225371
-0.222374
-0.219421
-0.216587
-0.213871
-0.211218
-0.208546
-0.205773
-0.202827
-0.199654
-0.196221
-0.192508
-0.18851
-0.184232
-0.179696
-0.174899
-0.169947
-0.164646
-0.257646
-0.252948
-0.248213
-0.243883
-0.240169
-0.23719
-0.234477
-0.231489
-0.228056
-0.224267
-0.220351
-0.216533
-0.212947
-0.209619
-0.206496
-0.203487
-0.200498
-0.197447
-0.194271
-0.190925
-0.187381
-0.183622
-0.179644
-0.175448
-0.171054
-0.166453
-0.161752
-0.156725
-0.260362
-0.255091
-0.249614
-0.24491
-0.240647
-0.23709
-0.233457
-0.22929
-0.224625
-0.219744
-0.214967
-0.210513
-0.20645
-0.202735
-0.199273
-0.195956
-0.19269
-0.189401
-0.186035
-0.182553
-0.17893
-0.17515
-0.171208
-0.167103
-0.162851
-0.158435
-0.153969
-0.149189
-0.263417
-0.25755
-0.25119
-0.246103
-0.241204
-0.23683
-0.232033
-0.226549
-0.220671
-0.214834
-0.209372
-0.204428
-0.199985
-0.195943
-0.192181
-0.188589
-0.185081
-0.181592
-0.178073
-0.17449
-0.170816
-0.167036
-0.163144
-0.159134
-0.155022
-0.150784
-0.146539
-0.141985
-0.266842
-0.26033
-0.253039
-0.247371
-0.241795
-0.236322
-0.23014
-0.223288
-0.216298
-0.20967
-0.203669
-0.198332
-0.193563
-0.189225
-0.185189
-0.181353
-0.177638
-0.173985
-0.170348
-0.166692
-0.162992
-0.15923
-0.155398
-0.151489
-0.147516
-0.143449
-0.139413
-0.135066
-0.270671
-0.263362
-0.255268
-0.248689
-0.24231
-0.235473
-0.227753
-0.219571
-0.211615
-0.204347
-0.197909
-0.192233
-0.187165
-0.182552
-0.17827
-0.174222
-0.170335
-0.166552
-0.162826
-0.159123
-0.155416
-0.151687
-0.147925
-0.14412
-0.140287
-0.136384
-0.132548
-0.128392
-0.274955
-0.266545
-0.257875
-0.250094
-0.242636
-0.23421
-0.224891
-0.215482
-0.206712
-0.198918
-0.192105
-0.186117
-0.180768
-0.175902
-0.171402
-0.167174
-0.163147
-0.159263
-0.155476
-0.151748
-0.148052
-0.144369
-0.140685
-0.136989
-0.133294
-0.12955
-0.125907
-0.121928
-0.279774
-0.269868
-0.260761
-0.25161
-0.242683
-0.232487
-0.221596
-0.211097
-0.201644
-0.193402
-0.186246
-0.17996
-0.174348
-0.169255
-0.164566
-0.16019
-0.156053
-0.152095
-0.148269
-0.144536
-0.140867
-0.137241
-0.133644
-0.13006
-0.126503
-0.122914
-0.119459
-0.115644
-0.285188
-0.273394
-0.263792
-0.25317
-0.242375
-0.230289
-0.217923
-0.206473
-0.196436
-0.18779
-0.180307
-0.173739
-0.167885
-0.162592
-0.157745
-0.15325
-0.149031
-0.145024
-0.14118
-0.13746
-0.133833
-0.130274
-0.12677
-0.123302
-0.119883
-0.116446
-0.113174
-0.109513
-0.29117
-0.277203
-0.26684
-0.254649
-0.24165
-0.227626
-0.213916
-0.201641
-0.191085
-0.18206
-0.174265
-0.167433
-0.161362
-0.1559
-0.150924
-0.146338
-0.142061
-0.138027
-0.134186
-0.130495
-0.126922
-0.123441
-0.120037
-0.116687
-0.113408
-0.11012
-0.107028
-0.103511
-0.297583
-0.281412
-0.269802
-0.255892
-0.240457
-0.22452
-0.209607
-0.196606
-0.185573
-0.176186
-0.168095
-0.161023
-0.154765
-0.149162
-0.144087
-0.139436
-0.135124
-0.131086
-0.127265
-0.123618
-0.120112
-0.116718
-0.11342
-0.110192
-0.107054
-0.103912
-0.101
-0.0976167
-0.304263
-0.286078
-0.272602
-0.256741
-0.23876
-0.220992
-0.205007
-0.191354
-0.179873
-0.170141
-0.161776
-0.154494
-0.148079
-0.142366
-0.137218
-0.132527
-0.128205
-0.124181
-0.120398
-0.11681
-0.113382
-0.110085
-0.106899
-0.103796
-0.100801
-0.0977999
-0.0950701
-0.0918035
-0.311028
-0.291177
-0.275203
-0.257069
-0.236531
-0.217056
-0.200108
-0.185858
-0.173954
-0.163901
-0.155291
-0.147829
-0.14129
-0.135495
-0.130302
-0.125596
-0.121286
-0.117296
-0.113568
-0.110054
-0.106716
-0.103523
-0.100455
-0.0974812
-0.0946297
-0.0917671
-0.0892229
-0.0860472
-0.317683
-0.296667
-0.277545
-0.256788
-0.233751
-0.21271
-0.19489
-0.180088
-0.167788
-0.157442
-0.148622
-0.141015
-0.134383
-0.128537
-0.123326
-0.118631
-0.114353
-0.110417
-0.106761
-0.103333
-0.100096
-0.0970165
-0.0940724
-0.0912328
-0.0885264
-0.0858023
-0.0834501
-0.0803355
-0.324024
-0.30245
-0.279517
-0.255828
-0.2304
-0.207939
-0.189322
-0.174009
-0.161347
-0.150745
-0.141752
-0.134037
-0.127346
-0.121479
-0.116278
-0.111616
-0.107394
-0.103531
-0.0999616
-0.096635
-0.0935095
-0.0905521
-0.087738
-0.0850386
-0.0824784
-0.0798977
-0.077745
-0.0746807
-0.330028
-0.308149
-0.280972
-0.254129
-0.226452
-0.202712
-0.183368
-0.167589
-0.154607
-0.143792
-0.134667
-0.126882
-0.120166
-0.114309
-0.109145
-0.104542
-0.100397
-0.0966247
-0.0931595
-0.0899469
-0.0869441
-0.0841169
-0.0814384
-0.0788845
-0.0764686
-0.0740424
-0.072091
-0.0691047
-0.335709
-0.313366
-0.281724
-0.251638
-0.221873
-0.196993
-0.17699
-0.160797
-0.147545
-0.136565
-0.127353
-0.119536
-0.112831
-0.107015
-0.101916
-0.0973979
-0.0933509
-0.0896896
-0.0863447
-0.0832597
-0.0803903
-0.0777008
-0.0751626
-0.0727542
-0.0704724
-0.0682142
-0.0664339
-0.0635589
-0.340912
-0.317847
-0.281609
-0.248302
-0.216627
-0.190741
-0.170153
-0.153605
-0.14014
-0.129048
-0.119795
-0.111989
-0.105331
-0.0995891
-0.0945843
-0.090175
-0.0862487
-0.0827171
-0.0795089
-0.0765658
-0.0738416
-0.0712985
-0.0689056
-0.0666392
-0.0644792
-0.0623846
-0.0606805
-0.05789
-0.345461
-0.321345
-0.280482
-0.24407
-0.210672
-0.183913
-0.162821
-0.145989
-0.132374
-0.121226
-0.111982
-0.10423
-0.097657
-0.0920222
-0.0871403
-0.0828658
-0.0790829
-0.0757005
-0.0726456
-0.0698591
-0.067293
-0.0649079
-0.0626705
-0.0605515
-0.0585205
-0.0565674
-0.0547854
-0.0520186
-0.349188
-0.323618
-0.278222
-0.238892
-0.203965
-0.17647
-0.154965
-0.137927
-0.124231
-0.113087
-0.103903
-0.0962494
-0.0898008
-0.0843076
-0.0795786
-0.0754645
-0.0718473
-0.0686339
-0.0657498
-0.063135
-0.0607408
-0.058527
-0.0564596
-0.0545076
-0.0526411
-0.0508336
-0.0489527
-0.0464372
-0.306606
-0.303538
-0.299299
-0.293827
-0.287123
-0.279213
-0.270156
-0.259932
-0.248625
-0.236317
-0.223084
-0.20899
-0.194078
-0.178367
-0.161885
-0.14474
-0.127217
-0.109549
-0.0923006
-0.0740078
-0.319987
-0.315381
-0.30925
-0.301488
-0.292109
-0.281174
-0.268764
-0.255059
-0.240232
-0.224488
-0.208045
-0.191115
-0.173894
-0.156556
-0.139248
-0.122074
-0.105097
-0.0883227
-0.0717358
-0.0569342
-0.330725
-0.324924
-0.317351
-0.307888
-0.296561
-0.283458
-0.268718
-0.252545
-0.235186
-0.216925
-0.198066
-0.178919
-0.159786
-0.140942
-0.122618
-0.104996
-0.0882021
-0.0722826
-0.0573554
-0.0442489
-0.337536
-0.330741
-0.322009
-0.311291
-0.298581
-0.283993
-0.267716
-0.249996
-0.231126
-0.211434
-0.191268
-0.17098
-0.150905
-0.131351
-0.112584
-0.0948202
-0.078216
-0.062897
-0.0488835
-0.0367736
-0.34043
-0.332683
-0.322964
-0.311413
-0.29787
-0.28241
-0.26529
-0.246814
-0.227299
-0.207094
-0.186562
-0.166061
-0.145929
-0.126465
-0.107927
-0.0905239
-0.0744081
-0.059721
-0.0464117
-0.0352724
-0.339336
-0.330602
-0.320032
-0.308016
-0.294144
-0.278384
-0.261063
-0.242547
-0.22316
-0.20323
-0.183103
-0.163119
-0.143589
-0.124786
-0.106941
-0.0902401
-0.0748156
-0.0608076
-0.048071
-0.0375752
-0.334118
-0.324423
-0.313181
-0.301055
-0.287326
-0.271811
-0.254891
-0.236983
-0.218388
-0.199381
-0.180261
-0.161324
-0.142839
-0.125039
-0.108119
-0.0922457
-0.0775305
-0.0641125
-0.0517925
-0.0416319
-0.324848
-0.314263
-0.302633
-0.290768
-0.277619
-0.262853
-0.246874
-0.230107
-0.212806
-0.195181
-0.177468
-0.159911
-0.142731
-0.126118
-0.11024
-0.0952387
-0.081208
-0.0682861
-0.0562862
-0.0461957
-0.311942
-0.300929
-0.289366
-0.278064
-0.265793
-0.252137
-0.237463
-0.222152
-0.206403
-0.190369
-0.174231
-0.158182
-0.142398
-0.127033
-0.112223
-0.0980955
-0.0847389
-0.0722879
-0.0606069
-0.0504643
-0.295892
-0.285326
-0.274532
-0.264005
-0.252675
-0.240251
-0.227034
-0.2133
-0.199187
-0.184798
-0.170267
-0.155737
-0.141348
-0.127228
-0.113498
-0.100269
-0.0876271
-0.0756859
-0.0643662
-0.0541777
-0.278209
-0.268818
-0.25929
-0.249723
-0.239477
-0.22842
-0.216722
-0.204534
-0.191952
-0.179065
-0.16598
-0.152814
-0.139684
-0.126702
-0.113974
-0.101598
-0.0896567
-0.078243
-0.0673263
-0.057213
-0.260858
-0.252919
-0.244776
-0.236211
-0.227009
-0.217175
-0.206787
-0.195925
-0.184667
-0.173095
-0.161295
-0.149359
-0.137381
-0.125455
-0.113671
-0.102115
-0.0908636
-0.0799964
-0.0695266
-0.0596253
-0.24488
-0.23824
-0.231294
-0.223622
-0.215329
-0.206545
-0.197293
-0.187593
-0.177501
-0.167088
-0.156423
-0.145579
-0.134632
-0.123661
-0.112745
-0.10196
-0.0913774
-0.081067
-0.0710666
-0.0614756
-0.230598
-0.224928
-0.218924
-0.212057
-0.204591
-0.196724
-0.188448
-0.179746
-0.170655
-0.161239
-0.151556
-0.141664
-0.131625
-0.121506
-0.111376
-0.101302
-0.0913488
-0.0815778
-0.072038
-0.0627972
-0.217839
-0.212855
-0.207578
-0.201428
-0.194701
-0.18762
-0.18017
-0.172319
-0.164091
-0.155538
-0.14671
-0.137654
-0.12842
-0.119066
-0.109649
-0.10023
-0.0908659
-0.081614
-0.072525
-0.0636538
-0.206302
-0.201834
-0.197141
-0.191615
-0.185542
-0.179143
-0.172407
-0.165292
-0.157814
-0.150017
-0.14194
-0.133622
-0.125104
-0.116435
-0.107665
-0.0988464
-0.0900315
-0.0812717
-0.0726165
-0.0641148
-0.195732
-0.191701
-0.1875
-0.182516
-0.177017
-0.171219
-0.165107
-0.158635
-0.151815
-0.144681
-0.137268
-0.129604
-0.121726
-0.113673
-0.10549
-0.0972227
-0.0889176
-0.0806215
-0.0723814
-0.0642415
-0.185956
-0.182319
-0.178554
-0.174045
-0.169054
-0.163787
-0.158226
-0.152322
-0.146083
-0.139537
-0.132713
-0.125633
-0.118328
-0.110832
-0.103182
-0.0954201
-0.0875871
-0.079726
-0.0718803
-0.0640902
-0.176854
-0.173582
-0.170212
-0.166125
-0.161586
-0.156796
-0.151727
-0.14633
-0.140608
-0.134587
-0.128289
-0.121733
-0.114943
-0.10795
-0.100786
-0.0934872
-0.0860911
-0.0786365
-0.0711641
-0.06371
-0.168329
-0.1654
-0.162393
-0.15869
-0.154561
-0.150202
-0.145577
-0.140635
-0.135377
-0.129827
-0.124003
-0.117918
-0.111595
-0.105058
-0.0983369
-0.0914631
-0.0844708
-0.0773956
-0.0702751
-0.0631421
-0.160301
-0.157698
-0.155033
-0.151683
-0.147931
-0.143966
-0.139746
-0.135216
-0.130379
-0.125255
-0.119859
-0.114201
-0.108301
-0.102179
-0.0958624
-0.0893792
-0.0827604
-0.0760387
-0.0692493
-0.0624218
-0.1527
-0.150415
-0.148075
-0.145056
-0.141654
-0.138054
-0.134206
-0.130053
-0.1256
-0.120865
-0.115858
-0.110589
-0.105073
-0.0993307
-0.0933846
-0.0872606
-0.0809873
-0.0745949
-0.0681162
-0.0615788
-0.145468
-0.143497
-0.14147
-0.138765
-0.135694
-0.132436
-0.128933
-0.125129
-0.121029
-0.11665
-0.111999
-0.107085
-0.101922
-0.0965265
-0.0909205
-0.0851276
-0.079174
-0.0730881
-0.066901
-0.0606381
-0.138555
-0.136899
-0.135179
-0.132775
-0.130019
-0.127086
-0.123906
-0.120426
-0.116653
-0.112603
-0.108281
-0.103693
-0.098853
-0.0937765
-0.0884835
-0.082996
-0.0773386
-0.0715382
-0.0656243
-0.0596207
-0.131918
-0.130583
-0.129167
-0.127053
-0.124603
-0.121979
-0.119106
-0.11593
-0.112463
-0.108718
-0.104699
-0.100413
-0.0958706
-0.0910882
-0.0860838
-0.0808785
-0.0754959
-0.0699614
-0.0643036
-0.0585447
-0.125521
-0.124516
-0.123402
-0.121572
-0.11942
-0.117097
-0.114515
-0.111627
-0.108447
-0.104988
-0.101251
-0.097244
-0.0929775
-0.0884668
-0.0837294
-0.0787855
-0.0736579
-0.0683713
-0.0629534
-0.0574253
-0.119332
-0.118671
-0.117858
-0.116309
-0.114451
-0.11242
-0.110117
-0.107504
-0.104596
-0.101405
-0.0979325
-0.0941854
-0.090175
-0.0859162
-0.0814262
-0.0767248
-0.0718343
-0.066779
-0.0615858
-0.0562756
-0.113321
-0.113023
-0.112513
-0.111241
-0.109679
-0.107933
-0.105899
-0.103549
-0.100901
-0.0979632
-0.094739
-0.0912352
-0.0874636
-0.0834391
-0.0791788
-0.0747027
-0.0700329
-0.0651934
-0.0602109
-0.0551064
-0.107464
-0.107552
-0.107344
-0.106351
-0.105085
-0.103621
-0.101849
-0.0997527
-0.0973531
-0.0946568
-0.0916669
-0.0883914
-0.084843
-0.0810368
-0.0769903
-0.0727237
-0.0682595
-0.0636218
-0.0588368
-0.0539266
-0.101741
-0.102244
-0.102335
-0.10162
-0.100654
-0.0994687
-0.0979536
-0.0961052
-0.0939456
-0.0914797
-0.0887118
-0.0856515
-0.0823122
-0.0787098
-0.0748625
-0.0707912
-0.0665187
-0.0620696
-0.05747
-0.0527434
-0.0961283
-0.097088
-0.0974739
-0.0970414
-0.0963774
-0.095467
-0.0942041
-0.0925982
-0.0906709
-0.0884261
-0.0858691
-0.0830121
-0.0798694
-0.0764578
-0.0727966
-0.0689074
-0.064814
-0.0605415
-0.0561159
-0.0515626
-0.0906001
-0.0920707
-0.0927499
-0.0926093
-0.0922525
-0.0916131
-0.0905977
-0.0892281
-0.0875249
-0.0854916
-0.0831354
-0.0804705
-0.0775127
-0.07428
-0.0707928
-0.0670739
-0.0631478
-0.0590407
-0.0547788
-0.0503891
-0.0851354
-0.0871566
-0.0881299
-0.0883026
-0.088263
-0.0878965
-0.0871277
-0.0859897
-0.0845031
-0.0826727
-0.0805079
-0.0780244
-0.0752404
-0.0721753
-0.068851
-0.0652914
-0.061522
-0.05757
-0.0534622
-0.0492271
-0.0797267
-0.0823054
-0.0835718
-0.0840757
-0.0843633
-0.0842806
-0.0837672
-0.0828631
-0.0815912
-0.0799594
-0.0779797
-0.0756698
-0.0730505
-0.0701432
-0.0669715
-0.0635608
-0.059938
-0.0561316
-0.0521688
-0.04808
-0.0744099
-0.0775393
-0.0791052
-0.0799387
-0.0805411
-0.0807455
-0.0804958
-0.0798298
-0.0787733
-0.0773387
-0.075541
-0.0734002
-0.070939
-0.0681818
-0.0651541
-0.0618833
-0.0583978
-0.0547278
-0.0509015
-0.0469508
-0.0692503
-0.0729687
-0.0748952
-0.0760482
-0.0769199
-0.0773783
-0.077371
-0.0769262
-0.0760704
-0.0748204
-0.073194
-0.071213
-0.0689015
-0.0662865
-0.0633953
-0.0602568
-0.0569012
-0.0533602
-0.0496629
-0.0458431
-0.0641975
-0.0685559
-0.0709796
-0.072488
-0.073601
-0.0742732
-0.0744702
-0.0742132
-0.0735286
-0.0724367
-0.0709585
-0.0691178
-0.0669401
-0.064454
-0.061689
-0.0586747
-0.0554422
-0.0520245
-0.0484511
-0.0447575
-0.0588643
-0.0636979
-0.0667578
-0.0687658
-0.0702152
-0.0711618
-0.071605
-0.071566
-0.0710726
-0.0701489
-0.0688206
-0.0671164
-0.065065
-0.0626979
-0.0600484
-0.0571469
-0.0540265
-0.050722
-0.0472645
-0.0436907
-0.0529158
-0.0577319
-0.0614196
-0.064106
-0.0661022
-0.0675081
-0.0683533
-0.0686635
-0.0684699
-0.0678015
-0.0666886
-0.0651671
-0.0632721
-0.0610404
-0.0585104
-0.0557164
-0.0526959
-0.0494883
-0.0461286
-0.0426583
-0.0478164
-0.0522178
-0.0561815
-0.0593933
-0.061914
-0.0637851
-0.0650362
-0.0657007
-0.0658147
-0.0654136
-0.0645325
-0.06321
-0.0614863
-0.0594035
-0.0570037
-0.0543262
-0.0514133
-0.0483074
-0.0450465
-0.0416734
-0.0534856
-0.0322332
-0.0135203
0.00236451
0.0153148
0.0253438
0.0327958
0.0382778
0.0420377
0.0444203
0.0457258
0.0462398
0.0460024
0.0453818
0.0445485
0.0435614
0.0424294
0.0412036
0.0398944
0.0385413
0.0371662
0.0357714
0.0343608
0.0329425
0.0315277
0.0301422
0.0287543
0.0273849
0.0260489
0.0247533
0.023504
0.0223061
0.0211636
0.0200792
0.0190505
0.0180788
0.0171809
0.0163456
0.0155623
0.0148244
0.0141323
0.013483
0.0128745
0.0123012
0.0117591
0.0112449
0.0107559
0.0102901
0.00984564
0.00942125
0.00901585
0.00862865
0.008259
0.00790641
0.00757051
0.007251
0.00694735
0.00665907
0.00638523
0.00612466
0.00587641
0.00564002
0.00541594
0.0052035
0.0050013
0.00480828
0.00462379
0.00444715
0.00427784
0.00411514
0.00395841
0.00380716
0.00366101
0.00351962
0.00338269
0.00324999
0.00312131
0.00299647
0.00287533
0.00275774
0.00264359
0.00253277
0.00242518
0.00232072
0.0022193
0.0021208
0.00202513
0.00193222
0.00184196
0.00175426
0.00166904
0.00158622
0.00150576
0.00142758
0.00135167
0.00127801
0.00120659
0.0011374
0.00107043
0.00100567
0.000943078
0.000882595
0.000824139
0.000767608
0.000712882
0.000659831
0.00060832
0.000558215
0.000509382
0.000461694
0.000415031
0.000369279
0.000324327
0.000280079
0.000236409
0.000193318
0.000150358
0.00010883
6.37826e-05
3.6327e-05
-0.0397077
-0.0220204
-0.00667821
0.00615762
0.0165422
0.0246098
0.0305916
0.0349804
0.038006
0.0398982
0.0408957
0.0416299
0.0418952
0.0417471
0.0413298
0.0407413
0.0400163
0.0391765
0.0382369
0.0372176
0.0361316
0.0349855
0.0337896
0.0325564
0.0312994
0.030034
0.0287625
0.0274992
0.0262536
0.0250326
0.0238427
0.0226897
0.0215784
0.0205125
0.0194948
0.0185298
0.017609
0.0167361
0.0159129
0.0151392
0.0144098
0.0137171
0.0130633
0.0124458
0.011863
0.0113122
0.0107906
0.0102959
0.0098265
0.00938078
0.00895752
0.00855572
0.00817449
0.00781301
0.00747066
0.00714722
0.00684207
0.00655388
0.00628228
0.00602651
0.00578559
0.00555787
0.00534129
0.00513521
0.00493932
0.00475272
0.00457448
0.00440378
0.00423991
0.0040822
0.00393007
0.00378302
0.00364066
0.00350262
0.00336864
0.00323848
0.00311196
0.00298893
0.00286926
0.00275285
0.00263962
0.0025295
0.00242243
0.00231833
0.00221714
0.00211881
0.00202326
0.00193042
0.00184023
0.00175259
0.00166744
0.00158472
0.00150435
0.00142629
0.00135051
0.00127698
0.00120569
0.00113663
0.00106979
0.00100515
0.000942665
0.000882274
0.000823896
0.000767428
0.000712754
0.000659744
0.000608265
0.000558183
0.000509367
0.000461691
0.000415037
0.000369289
0.00032434
0.000280091
0.00023642
0.000193326
0.000150359
0.000108829
6.37586e-05
3.6397e-05
-0.0281612
-0.0138927
-0.00168582
0.00836786
0.0164292
0.0227669
0.027618
0.031154
0.0336583
0.035456
0.0367778
0.0374132
0.0378612
0.0380758
0.0380977
0.0379466
0.037628
0.0371519
0.0365346
0.0357936
0.0349461
0.0340076
0.0329939
0.0319219
0.0308083
0.0296679
0.0285097
0.0273452
0.026185
0.0250373
0.0239091
0.0228061
0.0217334
0.0206947
0.0196929
0.0187313
0.0178104
0.0169325
0.0160975
0.0153044
0.0145525
0.0138419
0.0131658
0.0125247
0.0119153
0.0113376
0.0107902
0.0102717
0.00978111
0.00931733
0.00887931
0.00846605
0.00807658
0.00770985
0.0073648
0.00704079
0.00673694
0.00645124
0.00618254
0.00593023
0.00569318
0.00546991
0.00525879
0.00505895
0.00486941
0.00468896
0.00451656
0.00435138
0.00419267
0.00403973
0.00389199
0.00374894
0.00361017
0.00347537
0.00334427
0.00321666
0.00309238
0.00297131
0.00285334
0.00273841
0.00262646
0.00251743
0.0024113
0.00230802
0.00220755
0.00210985
0.00201488
0.00192258
0.00183288
0.00174573
0.00166107
0.00157882
0.00149892
0.00142134
0.00134602
0.00127294
0.00120209
0.00113344
0.00106698
0.00100268
0.000940504
0.000880388
0.000822251
0.000765993
0.0007115
0.000658646
0.000607302
0.000557338
0.000508624
0.000461039
0.000414466
0.000368792
0.00032391
0.000279723
0.000236109
0.00019307
0.000150153
0.000108675
6.36269e-05
3.64592e-05
-0.0227815
-0.010496
-0.000423748
0.00776622
0.0142541
0.0192913
0.0231537
0.0260896
0.0284289
0.030294
0.0318063
0.0329348
0.0338303
0.0344951
0.034936
0.0351623
0.035181
0.0350033
0.0346484
0.0341375
0.0334924
0.0327341
0.0318824
0.0309559
0.0299733
0.0289511
0.0279017
0.0268367
0.0257666
0.0246998
0.0236432
0.0226028
0.0215836
0.0205894
0.0196238
0.0186897
0.0177886
0.0169222
0.0160916
0.0152972
0.0145391
0.0138165
0.0131277
0.0124726
0.0118509
0.0112608
0.0107018
0.0101731
0.00967362
0.00920254
0.00875895
0.00834189
0.00795041
0.00758358
0.00724036
0.0069191
0.00661818
0.00633699
0.0060741
0.00582798
0.00559712
0.00537998
0.00517507
0.0049811
0.00479702
0.00462173
0.00445422
0.00429364
0.00413922
0.00399027
0.00384623
0.00370661
0.00357103
0.00343916
0.00331077
0.00318565
0.00306366
0.00294468
0.00282863
0.00271545
0.00260509
0.00249752
0.00239272
0.00229066
0.00219131
0.00209466
0.00200067
0.0019093
0.0018205
0.00173422
0.00165039
0.00156896
0.00148986
0.00141306
0.00133849
0.00126614
0.00119597
0.00112797
0.00106211
0.000998354
0.00093667
0.000876994
0.000819247
0.000763333
0.000709141
0.000656552
0.000605442
0.000555685
0.000507157
0.00045974
0.00041332
0.000367788
0.000323037
0.000278975
0.000235479
0.000192552
0.00014974
0.000108369
6.33927e-05
3.65083e-05
-0.0215735
-0.0114271
-0.00324826
0.00381933
0.00955613
0.0140438
0.0176272
0.0205819
0.0230958
0.0252577
0.0271169
0.0286728
0.0299672
0.0310045
0.0317866
0.03232
0.0326136
0.0326822
0.0325477
0.032235
0.0317692
0.0311745
0.0304736
0.0296872
0.0288342
0.0279316
0.0269933
0.0260313
0.0250559
0.0240757
0.023098
0.0221286
0.0211726
0.0202341
0.0193166
0.0184231
0.0175559
0.016717
0.0159079
0.0151297
0.014383
0.0136679
0.0129842
0.0123319
0.0117108
0.0111206
0.0105614
0.0100325
0.00953323
0.00906308
0.00862126
0.00820686
0.00781889
0.00745631
0.0071178
0.00680152
0.0065059
0.00623012
0.00597262
0.00573171
0.00550587
0.00529357
0.00509338
0.00490396
0.00472418
0.00455297
0.00438933
0.00423237
0.00408137
0.00393565
0.00379467
0.00365796
0.00352514
0.0033959
0.00327001
0.00314727
0.00302754
0.00291071
0.00279669
0.00268544
0.0025769
0.00247105
0.00236788
0.00226736
0.00216948
0.00207421
0.00198154
0.00189143
0.00180385
0.00171873
0.00163603
0.00155569
0.00147765
0.00140187
0.00132829
0.00125688
0.0011876
0.00112043
0.00105535
0.000992309
0.000931272
0.000872177
0.000814949
0.000759496
0.000705714
0.000653489
0.000602704
0.000553239
0.000504976
0.000457801
0.000411605
0.000366281
0.000321727
0.00027785
0.000234531
0.000191774
0.000149123
0.000107916
6.30631e-05
3.65362e-05
-0.0235399
-0.0149336
-0.00811241
-0.00155627
0.00402876
0.00844124
0.0120613
0.0152158
0.0180326
0.020536
0.0227391
0.0246465
0.0262689
0.0276056
0.0286575
0.0294332
0.0299465
0.0302173
0.0302704
0.0301326
0.0298307
0.0293902
0.0288348
0.0281858
0.0274622
0.0266808
0.0258558
0.0249997
0.0241228
0.0232339
0.0223404
0.0214482
0.0205626
0.0196878
0.0188276
0.017985
0.0171627
0.016363
0.0155876
0.0148382
0.0141157
0.013421
0.0127546
0.012117
0.0115086
0.0109296
0.0103803
0.00986032
0.00936941
0.00890712
0.00847281
0.00806565
0.00768467
0.00732874
0.00699647
0.00668635
0.00639697
0.00612687
0.0058746
0.00563858
0.00541727
0.00520918
0.00501291
0.00482716
0.00465078
0.00448275
0.0043221
0.00416801
0.00401975
0.00387668
0.00373827
0.00360406
0.0034737
0.00334687
0.00322333
0.0031029
0.00298542
0.00287079
0.00275891
0.00264973
0.0025432
0.00243929
0.00233798
0.00223925
0.00214309
0.00204947
0.00195838
0.00186978
0.00178365
0.00169993
0.00161858
0.00153955
0.00146277
0.00138819
0.00131577
0.00124546
0.00117723
0.00111105
0.00104688
0.000984683
0.000924417
0.000866021
0.000809421
0.000754532
0.000701256
0.000649485
0.000599109
0.000550015
0.000502092
0.000455231
0.000409326
0.000364276
0.000319981
0.000276352
0.000233269
0.000190739
0.000148307
0.000107318
6.26457e-05
3.6533e-05
-0.0274827
-0.0196919
-0.0136162
-0.00725003
-0.00154487
0.00305088
0.00689014
0.0103226
0.0134466
0.0162517
0.0187356
0.0209058
0.0227678
0.0243226
0.0255753
0.0265383
0.0272296
0.0276715
0.0278897
0.0279113
0.027763
0.0274701
0.027056
0.0265419
0.0259464
0.0252858
0.0245745
0.0238251
0.0230479
0.0222518
0.0214445
0.0206323
0.0198204
0.0190135
0.0182153
0.0174294
0.0166585
0.0159051
0.0151714
0.0144592
0.0137698
0.0131046
0.0124646
0.0118505
0.0112632
0.0107032
0.0101707
0.00966605
0.009189
0.00873929
0.00831643
0.0079197
0.00754817
0.00720076
0.00687621
0.00657311
0.00629008
0.00602565
0.0057784
0.00554684
0.00532951
0.00512499
0.00493197
0.00474922
0.00457563
0.00441021
0.00425205
0.00410036
0.00395445
0.0038137
0.00367759
0.00354569
0.00341762
0.0032931
0.00317186
0.00305372
0.00293852
0.00282614
0.00271649
0.0026095
0.00250512
0.00240331
0.00230404
0.00220728
0.00211303
0.00202125
0.00193193
0.00184504
0.00176055
0.0016784
0.00159857
0.00152098
0.0014456
0.00137236
0.00130123
0.00123215
0.00116508
0.0011
0.00103685
0.000975601
0.000916206
0.000858604
0.000802726
0.00074849
0.000695803
0.000644567
0.000594678
0.00054603
0.000498518
0.000452039
0.000406492
0.00036178
0.000317806
0.000274484
0.000231697
0.000189452
0.000147295
0.000106581
6.21486e-05
3.64873e-05
-0.0324629
-0.0248308
-0.0188977
-0.0125464
-0.00666618
-0.00181115
0.00229289
0.00598362
0.00935437
0.0123843
0.0150666
0.017417
0.0194468
0.0211608
0.0225668
0.0236801
0.0245205
0.0251114
0.0254779
0.0256463
0.0256422
0.0254898
0.0252116
0.024828
0.0243571
0.0238148
0.0232153
0.0225709
0.0218924
0.0211886
0.0204674
0.0197353
0.0189979
0.0182601
0.0175261
0.0167993
0.016083
0.0153797
0.014692
0.0140217
0.0133707
0.0127404
0.0121321
0.011547
0.0109859
0.0104496
0.00993868
0.00945341
0.00899386
0.00855989
0.00815109
0.00776687
0.00740643
0.00706881
0.00675287
0.00645735
0.00618096
0.00592234
0.00568012
0.00545294
0.00523945
0.00503833
0.00484836
0.00466839
0.00449737
0.00433437
0.00417854
0.00402913
0.00388545
0.00374692
0.00361305
0.0034834
0.00335761
0.00323538
0.00311645
0.00300064
0.00288777
0.00277772
0.00267039
0.00256569
0.00246356
0.00236396
0.00226686