/*--------------------------------*- C++ -*----------------------------------*\
  =========                 |
  \\      /  F ield         | OpenFOAM: The Open Source CFD Toolbox
   \\    /   O peration     | Website:  https://openfoam.org
    \\  /    A nd           | Version:  13
     \\/     M anipulation  |
\*---------------------------------------------------------------------------*/
FoamFile
{
    format      ascii;
    class       surfaceScalarField;
    location    "21";
    object      phi;
}
// * * * * * * * * * * * * * * * * * * * * * * * * * * * * * * * * * * * * * //

dimensions      [0 3 -1 0 0 0 0];

internalField   nonuniform List<scalar> 
42564
(
-0.000339188
0.000443046
-0.000103859
-0.000970231
0.00110816
-0.000477114
-0.00174217
0.00158389
-0.000811959
-0.00259067
0.00195161
-0.0011031
-0.0034926
0.00229637
-0.00139445
-0.00444364
0.00266869
-0.00171765
-0.00544767
0.00308732
-0.00208329
-0.00651155
0.0035527
-0.00248882
-0.00764314
0.00405713
-0.00292553
-0.00885063
0.0045883
-0.00338082
-0.0101422
0.00512974
-0.00383817
-0.0115257
0.00566048
-0.00427697
-0.0130082
0.00615525
-0.00467276
-0.0145956
0.00658548
-0.00499805
-0.0162917
0.00692005
-0.00522397
-0.0181003
0.00712785
-0.00531921
-0.0200253
0.00717664
-0.00525165
-0.0220684
0.0070346
-0.00499156
-0.0242297
0.00667339
-0.00451212
-0.0265088
0.00607029
-0.00379111
-0.0289076
0.00520997
-0.00281121
-0.0314187
0.00408472
-0.00157361
-0.0340289
0.00269078
-8.05983e-05
-0.0366881
0.00102494
0.00163427
-0.0393864
-0.00083951
0.00353784
-0.0420865
-0.00289073
0.00559078
-0.0447465
-0.00508075
0.00774075
-0.00734694
-0.0473218
0.00992223
-0.000327578
0.000770625
-0.000936945
0.00171752
-0.00168065
0.0023276
-0.00249405
0.00276501
-0.00335201
0.00315432
-0.00424761
0.00356429
-0.00518203
0.00402175
-0.00615919
0.00452985
-0.00718358
0.00508152
-0.00825962
0.00566434
-0.00939131
0.00626143
-0.0105821
0.00685131
-0.0118348
0.00740787
-0.0131512
0.00790196
-0.0145338
0.00830261
-0.0159812
0.00857528
-0.0174906
0.00868599
-0.0190571
0.0086011
-0.0206733
0.00828962
-0.0223288
0.00772582
-0.02401
0.0068911
-0.025701
0.00577573
-0.0273911
0.00438092
-0.0290853
0.00271906
-0.0307388
0.000814056
-0.0323666
-0.00126297
-0.033942
-0.00350537
-0.0058567
-0.0354322
-0.000310702
0.00108133
-0.00088819
0.00229501
-0.00158972
0.00302913
-0.00234991
0.0035252
-0.00314065
0.00394506
-0.00395105
0.00437469
-0.00477816
0.00484886
-0.00562133
0.00537303
-0.00648002
0.00594021
-0.00735308
0.0065374
-0.00823846
0.00714681
-0.00913309
0.00774593
-0.0100325
0.00830732
-0.0109307
0.00880017
-0.0118216
0.00919343
-0.0126953
0.009449
-0.0135403
0.00953105
-0.0143436
0.00940434
-0.0150907
0.00903677
-0.0157675
0.00840258
-0.01636
0.00748365
-0.0168549
0.00627061
-0.0172397
0.00476573
-0.0175008
0.00298014
-0.0176228
0.000936008
-0.0175742
-0.00131151
-0.0173648
-0.00371474
-0.00630158
-0.01692
-0.000289299
0.00137063
-0.000825802
0.00283151
-0.00147246
0.00367579
-0.0021629
0.00421564
-0.00286529
0.00464745
-0.00356376
0.00507315
-0.00425021
0.00553531
-0.00491832
0.00604114
-0.00556145
0.00658333
-0.00617191
0.00714786
-0.00674067
0.00771557
-0.00725723
0.0082625
-0.00770951
0.0087596
-0.00808366
0.00917432
-0.00836507
0.00947484
-0.00853693
0.00962086
-0.00858171
0.00957583
-0.00848165
0.00930427
-0.00821958
0.0087747
-0.00777979
0.0079628
-0.00714919
0.00685305
-0.00631233
0.00543375
-0.00525538
0.00370877
-0.00396198
0.00168674
-0.00241556
-0.000610412
-0.000573913
-0.00315315
0.00160696
-0.00589562
-0.00879956
0.00410494
-0.000264318
0.00163494
-0.000752157
0.00331935
-0.00133291
0.00425655
-0.00193907
0.00482179
-0.00253469
0.00524308
-0.00309831
0.00563677
-0.00361622
0.00605322
-0.00407577
0.00650069
-0.00446386
0.00697143
-0.00476616
0.00745016
-0.00496677
0.00791617
-0.00504825
0.00834398
-0.0049918
0.00870315
-0.00477769
0.00896021
-0.00438477
0.00908192
-0.00379234
0.00902843
-0.00298
0.00876349
-0.00192868
0.00825296
-0.000621192
0.00746721
0.000958449
0.00638315
0.00282893
0.00498257
0.00500248
0.00326021
0.00749666
0.00121459
0.0103347
-0.00115134
0.0135414
-0.00381707
0.0171489
-0.00676062
0.021181
-0.00992775
-0.0133684
0.0257498
-0.000236874
0.00187182
-0.000670051
0.00375253
-0.00117579
0.00476229
-0.00168548
0.00533148
-0.00215889
0.00571649
-0.00256898
0.00604686
-0.00289639
0.00638063
-0.00312185
0.00672615
-0.00322611
0.00707569
-0.0031887
0.00741275
-0.00298774
0.00771522
-0.00260023
0.00795646
-0.00200209
0.00810501
-0.00116952
0.00812764
-7.78277e-05
0.00799023
0.00129658
0.00765401
0.0029752
0.00708487
0.00497853
0.00624963
0.00732564
0.00512009
0.0100347
0.00367409
0.0131238
0.0018935
0.0166168
-0.000232772
0.0205404
-0.0027091
0.0249216
-0.00553252
0.0297935
-0.00868889
0.0351912
-0.0121584
0.0411399
-0.0158764
-0.0198885
0.04766
-0.000208183
0.00208
-0.00058255
0.0041269
-0.00100628
0.00518602
-0.00140986
0.00573506
-0.00174841
0.00605503
-0.00199059
0.00628904
-0.00211111
0.00650115
-0.00208405
0.00669909
-0.00188474
0.00687638
-0.00148736
0.00701538
-0.00086507
0.00709292
9.74675e-06
0.00708165
0.0011644
0.00695036
0.0026269
0.00666515
0.0044246
0.00619253
0.00658297
0.00549565
0.0091264
0.00454144
0.0120787
0.0032973
0.0154633
0.00173555
0.0193051
-0.000167706
0.023633
-0.0024344
0.0284771
-0.00507694
0.0338714
-0.00810332
0.039853
-0.0115142
0.0464526
-0.0152884
0.0536729
-0.0193787
0.0614785
-0.023682
-0.0281707
0.0697608
-0.00017948
0.00225948
-0.000492792
0.00444021
-0.000829697
0.00552293
-0.00111903
0.0060244
-0.00131365
0.00624965
-0.00137797
0.00635336
-0.0012785
0.00640168
-0.000985096
0.00640568
-0.000467749
0.00635903
0.000304207
0.00624342
0.00136209
0.00603504
0.00273784
0.0057059
0.0044633
0.00522489
0.00656976
0.00455869
0.00908849
0.00367379
0.0120499
0.00253428
0.015483
0.0011083
0.0194182
-0.000637905
0.0238877
-0.00273393
0.0289257
-0.00520572
0.034569
-0.00807768
0.0408562
-0.0113642
0.0478178
-0.0150649
0.0554574
-0.0191537
0.0637298
-0.0235609
0.0725224
-0.0281713
0.0816685
-0.0328281
-0.0374112
0.090909
-0.000151951
0.00241143
-0.000403605
0.00469186
-0.000649959
0.00576928
-0.000820602
0.00619504
-0.000865323
0.00629437
-0.000741718
0.00622976
-0.000411158
0.00607112
0.000161517
0.00583301
0.0010118
0.00550875
0.002176
0.00507922
0.00369079
0.00452025
0.00559325
0.00380345
0.0079208
0.00289733
0.0107106
0.00176885
0.0139993
0.000385144
0.0178233
-0.00128975
0.0222206
-0.00328899
0.0272306
-0.00564789
0.0328943
-0.00839765
0.039252
-0.0115634
0.0463323
-0.015158
0.0541329
-0.0191649
0.0625983
-0.0235303
0.0716
-0.0281555
0.0809465
-0.0329074
0.090407
-0.0376319
0.0997605
-0.0421816
-0.0464118
0.108761
-0.000126514
0.00253795
-0.00031721
0.00488256
-0.000472092
0.00592416
-0.000521236
0.00624418
-0.000409176
0.00618231
-8.77442e-05
0.00590832
0.000486805
0.00549657
0.00135633
0.00496348
0.00256342
0.00430165
0.00415131
0.00349134
0.00616387
0.00250768
0.00864532
0.001322
0.0116399
-9.72134e-05
0.015191
-0.00178229
0.0193435
-0.0037674
0.0241437
-0.00608991
0.0296392
-0.00878446
0.0358725
-0.0118812
0.0428701
-0.0153953
0.0506235
-0.0193167
0.059064
-0.0235985
0.0680544
-0.0281552
0.0773963
-0.0328721
0.0868547
-0.0376139
0.096188
-0.0422407
0.105167
-0.0466108
0.113607
-0.0506219
-0.0541492
0.121345
-0.000103962
0.00264191
-0.00023588
0.00501448
-0.000299749
0.00598803
-0.000224055
0.00616849
5.27301e-05
0.00590553
0.000584786
0.00537627
0.00142338
0.00465797
0.00261921
0.00376765
0.00422417
0.00269669
0.00629065
0.00142486
0.00887095
-7.26178e-05
0.0120172
-0.00182427
0.0157813
-0.00386128
0.0202178
-0.00621882
0.0253829
-0.00893244
0.0313238
-0.0120308
0.0380673
-0.015528
0.0455992
-0.0194131
0.0538447
-0.0236407
0.062661
-0.0281331
0.071849
-0.0327865
0.0811745
-0.0374807
0.0903882
-0.0420858
0.0992496
-0.0464753
0.107552
-0.0505427
0.115145
-0.0542044
0.121953
-0.0574301
-0.0601474
0.127952
-8.48864e-05
0.00272679
-0.000161185
0.00509078
-0.000134339
0.00596118
7.10378e-05
0.00596311
0.000523652
0.00545291
0.0012867
0.00461322
0.00242183
0.00352285
0.00399149
0.00219799
0.00605872
0.000629465
0.00868611
-0.00120253
0.0119344
-0.00332095
0.0158673
-0.00575714
0.0205507
-0.00854468
0.0260424
-0.0117105
0.0323749
-0.015265
0.0395351
-0.019191
0.047446
-0.0234388
0.0559638
-0.0279309
0.0648912
-0.0325681
0.0739936
-0.0372355
0.0830182
-0.0418111
0.091718
-0.0461805
0.0998795
-0.0502473
0.107345
-0.0539413
0.114027
-0.0572244
0.11991
-0.0600868
0.125041
-0.0625612
-0.0646226
0.129516
-6.95155e-05
0.00279631
-9.32948e-05
0.00511456
2.50958e-05
0.00584279
0.000367691
0.00562052
0.0010143
0.0048063
0.00204042
0.0035871
0.00352173
0.00204154
0.0055341
0.00018562
0.00815224
-0.00198868
0.0114492
-0.00449944
0.0155016
-0.00737338
0.0203838
-0.0106394
0.0261456
-0.0143065
0.0327854
-0.0183503
0.0402319
-0.0227115
0.0483466
-0.0273057
0.056935
-0.0320273
0.0657601
-0.036756
0.0745624
-0.0413704
0.0830876
-0.0457607
0.0911152
-0.0498387
0.0984804
-0.0535458
0.105088
-0.0568549
0.110915
-0.0597685
0.116004
-0.0623135
0.120448
-0.0645301
0.124364
-0.0664779
-0.0681461
0.127888
-5.76346e-05
0.00285394
-3.10097e-05
0.00508793
0.000181962
0.00562982
0.000674776
0.0051277
0.00154388
0.0039372
0.00288041
0.00225056
0.0047761
0.000145856
0.00732037
-0.00235865
0.0106013
-0.00526959
0.014709
-0.00860713
0.0197234
-0.0123878
0.0256728
-0.0165887
0.0325083
-0.0211419
0.0401064
-0.0259484
0.0482799
-0.0308851
0.0567875
-0.0358133
0.0653579
-0.0405976
0.0737221
-0.0451202
0.0816443
-0.0492926
0.0889463
-0.0530626
0.0955223
-0.0564147
0.101342
-0.0593652
0.106441
-0.0619542
0.110907
-0.0642345
0.114856
-0.0662622
0.118413
-0.0680874
0.121696
-0.0697606
-0.0712566
0.124806
-4.8533e-05
0.00290248
2.80529e-05
0.00501134
0.000342804
0.00531507
0.00100732
0.00446319
0.00214008
0.00280444
0.00385037
0.000540276
0.00624567
-0.00224945
0.00943105
-0.00554403
0.0135125
-0.00935101
0.0185686
-0.0136633
0.0246018
-0.018421
0.0315246
-0.0235115
0.0391696
-0.0287869
0.047297
-0.0340758
0.0556209
-0.039209
0.0638475
-0.0440399
0.0717116
-0.0484618
0.0790079
-0.0524165
0.0856087
-0.0558934
0.0914687
-0.0589227
0.096616
-0.061562
0.101134
-0.0638828
0.105136
-0.0659567
0.108747
-0.067846
0.112084
-0.0695985
0.115241
-0.071245
0.118293
-0.0728126
-0.0742553
0.121292
-4.09805e-05
0.00294346
8.78936e-05
0.00488247
0.000517226
0.00488574
0.0013858
0.00359461
0.00283717
0.00135308
0.00499881
-0.00162137
0.00799507
-0.00524571
0.0119481
-0.00949701
0.016938
-0.0143409
0.0229519
-0.0196772
0.0298721
-0.0253412
0.0374834
-0.0311228
0.0454946
-0.0367981
0.0535814
-0.0421626
0.0614336
-0.0470611
0.0687971
-0.0514034
0.0755022
-0.0551669
0.081473
-0.0583873
0.0867202
-0.0611405
0.0913202
-0.0635227
0.0953889
-0.0656308
0.0990547
-0.0675486
0.102437
-0.0693393
0.105635
-0.0710439
0.108721
-0.0726846
0.111745
-0.0742683
0.114736
-0.0758037
-0.0772329
0.117713
-3.32319e-05
0.00297669
0.000153907
0.00469533
0.000718042
0.0043216
0.00183506
0.00247759
0.00367206
-0.000483927
0.0063757
-0.004325
0.0100854
-0.00895544
0.0148932
-0.0143047
0.0207843
-0.0202321
0.0276181
-0.0265109
0.0351344
-0.0328575
0.0429933
-0.0389818
0.0508322
-0.0446369
0.0583255
-0.0496559
0.0652312
-0.0539668
0.0714144
-0.0575866
0.0768472
-0.0605997
0.0815885
-0.0631287
0.0857533
-0.0653052
0.0894785
-0.0672479
0.0928962
-0.0690484
0.0961152
-0.0707676
0.0992148
-0.0724389
0.102246
-0.0740752
0.105239
-0.075677
0.108208
-0.0772379
0.111164
-0.0787597
-0.080182
0.114113
-2.33115e-05
0.003
0.000232542
0.00443948
0.000960932
0.00359321
0.00238148
0.00105705
0.00468204
-0.00278449
0.00802482
-0.00766778
0.0125241
-0.0134547
0.0181819
-0.0199625
0.0248465
-0.0268967
0.0322208
-0.0338852
0.0399159
-0.0405527
0.0475275
-0.0465934
0.0547098
-0.0518192
0.0612273
-0.0561734
0.0669743
-0.0597139
0.0719644
-0.0625767
0.076297
-0.0649323
0.0801165
-0.0669482
0.0835739
-0.0687626
0.086799
-0.0704731
0.089888
-0.0721375
0.0929024
-0.073782
0.0958756
-0.0754121
0.098823
-0.0770226
0.101751
-0.0786051
0.104663
-0.0801501
0.107564
-0.0816606
-0.0830771
0.110459
-8.14383e-06
0.00300814
0.000331006
0.00410033
0.00126267
0.00266154
0.00305055
-0.000730826
0.00589812
-0.00563206
0.00995282
-0.0117225
0.015251
-0.018753
0.0216539
-0.0263654
0.0288398
-0.0340826
0.0363718
-0.0414172
0.0437963
-0.0479771
0.0507357
-0.0535328
0.0569496
-0.0580331
0.0623519
-0.0615757
0.0669891
-0.0643512
0.0709949
-0.0665824
0.0745375
-0.068475
0.0777776
-0.0701884
0.0808418
-0.0718268
0.0838144
-0.0734457
0.0867422
-0.0750652
0.0896455
-0.0766853
0.0925302
-0.0782968
0.0953969
-0.0798893
0.0982461
-0.0814542
0.101081
-0.0829847
0.103906
-0.0844861
-0.0859
0.106729
1.23769e-05
0.00299577
0.000457002
0.0036557
0.00163918
0.00147936
0.00386477
-0.00295641
0.00732951
-0.0090968
0.0121228
-0.0165158
0.018149
-0.0247791
0.0250849
-0.0333013
0.0324514
-0.041449
0.0397353
-0.0487011
0.0465102
-0.054752
0.052513
-0.0595356
0.0576629
-0.063183
0.0620302
-0.065943
0.0657769
-0.0680979
0.069093
-0.0698985
0.0721486
-0.0715305
0.075068
-0.0731078
0.0779265
-0.0746854
0.08076
-0.0762791
0.0835796
-0.0778847
0.0863848
-0.0794905
0.0891729
-0.0810849
0.0919428
-0.0826592
0.0946966
-0.084208
0.0974392
-0.0857272
0.100177
-0.0872239
-0.0886393
0.102916
4.06466e-05
0.00295512
0.000618355
0.003078
0.0021049
-7.18571e-06
0.00483471
-0.00568621
0.00896085
-0.0132229
0.0144598
-0.0220147
0.0210507
-0.0313701
0.0282275
-0.0404782
0.03541
-0.0486315
0.0421006
-0.0553917
0.0479887
-0.0606401
0.0529791
-0.064526
0.0571542
-0.0673582
0.0606999
-0.0694886
0.0638277
-0.0712257
0.0667196
-0.0727904
0.0695014
-0.0743123
0.0722431
-0.0758494
0.0749728
-0.0774151
0.0776956
-0.0790019
0.080407
-0.0805962
0.0831023
-0.0821858
0.0857797
-0.0837623
0.0884408
-0.0853203
0.0910896
-0.0868569
0.0937319
-0.0883695
0.096374
-0.0898659
-0.0912865
0.0990212
7.99495e-05
0.00287517
0.000821696
0.00233625
0.00267219
-0.00185768
0.00595843
-0.00897245
0.0107463
-0.0180108
0.0168466
-0.028115
0.0237664
-0.0382899
0.0308614
-0.0475732
0.0375394
-0.0553096
0.0434102
-0.0612625
0.0483366
-0.0655665
0.0523969
-0.0685863
0.0557951
-0.0707563
0.0587663
-0.0724599
0.0615091
-0.0739686
0.0641561
-0.0754373
0.066776
-0.0769322
0.069393
-0.0784665
0.072008
-0.0800301
0.074614
-0.0816079
0.0772052
-0.0831874
0.0797794
-0.08476
0.0823376
-0.0863206
0.0848835
-0.0878662
0.0874218
-0.0893952
0.0899578
-0.0909056
0.0924971
-0.0924052
-0.0938334
0.095044
0.000131403
0.00274377
0.00107228
0.00139537
0.00334293
-0.00412833
0.00721499
-0.0128445
0.0126173
-0.0234132
0.0191458
-0.0346435
0.0261185
-0.0452625
0.0328324
-0.0542871
0.0387791
-0.0612563
0.0437419
-0.0662252
0.0477698
-0.0695944
0.0510761
-0.0718925
0.0539212
-0.0736015
0.0565273
-0.075066
0.0590404
-0.0764817
0.0615337
-0.0779306
0.0640303
-0.0794288
0.0665287
-0.0809649
0.0690204
-0.0825218
0.0714987
-0.0840862
0.0739609
-0.0856497
0.0764081
-0.0872071
0.078843
-0.0887555
0.0812698
-0.090293
0.0836929
-0.0918182
0.0861168
-0.0933296
0.0885466
-0.0948349
-0.0962724
0.0909856
0.000196126
0.00254764
0.00137576
0.000215733
0.00411236
-0.00686493
0.0085675
-0.0172996
0.0144835
-0.0293292
0.0212196
-0.0413796
0.0279705
-0.0520134
0.0340712
-0.0603877
0.0391747
-0.0663599
0.0432634
-0.0703139
0.0465421
-0.0728732
0.0492963
-0.0746467
0.0517795
-0.0760846
0.0541603
-0.0774468
0.0565228
-0.0788442
0.0588928
-0.0803005
0.0612679
-0.0818039
0.0636384
-0.0833354
0.0659969
-0.0848803
0.0683406
-0.0864298
0.0706698
-0.0879789
0.0729872
-0.0895245
0.075296
-0.0910644
0.0776
-0.092597
0.0799031
-0.0941213
0.0822095
-0.0956359
0.0845233
-0.0971487
-0.0985966
0.0868475
0.000274758
0.00227288
0.00173563
-0.00124514
0.00496956
-0.0100989
0.00996719
-0.0222973
0.0162443
-0.0356063
0.0229502
-0.0480855
0.0292442
-0.0583074
0.0345902
-0.0657337
0.0388467
-0.0706164
0.0421783
-0.0736454
0.0448877
-0.0755826
0.0472673
-0.0770264
0.0495199
-0.0783372
0.0517488
-0.0796758
0.0539873
-0.0810826
0.056234
-0.0825472
0.0584783
-0.0840482
0.060712
-0.0855691
0.0629318
-0.0871001
0.0651378
-0.0886359
0.0673322
-0.0901733
0.0695177
-0.09171
0.0716975
-0.0932442
0.0738749
-0.0947744
0.0760534
-0.0962998
0.0782368
-0.0978194
0.0804289
-0.0993408
-0.1008
0.082632
0.000367296
0.00190559
0.00214898
-0.00302682
0.00589001
-0.0138399
0.0113538
-0.0277611
0.0178059
-0.0420583
0.024255
-0.0545346
0.0299219
-0.0639744
0.0344652
-0.070277
0.0379524
-0.0741037
0.040682
-0.0763749
0.0429884
-0.077889
0.0451215
-0.0791595
0.0472162
-0.0804319
0.0493197
-0.0817793
0.0514341
-0.0831971
0.0535486
-0.0846617
0.0556538
-0.0861535
0.0577459
-0.0876611
0.0598246
-0.0891788
0.0618917
-0.090703
0.0639496
-0.0922312
0.0660009
-0.0937614
0.0680486
-0.0952918
0.0700956
-0.0968214
0.0721451
-0.0983494
0.0742007
-0.0998749
0.0762656
-0.101406
-0.102876
0.0783417
0.000474864
0.00143073
0.00261149
-0.00516345
0.00684382
-0.0180722
0.0126628
-0.03358
0.0190911
-0.0484867
0.0250935
-0.0605369
0.0300385
-0.0689194
0.0338095
-0.074048
0.036652
-0.0769462
0.0389341
-0.078657
0.0409656
-0.0799205
0.0429287
-0.0811225
0.0448948
-0.0823981
0.0468742
-0.0837586
0.0488563
-0.0851792
0.0508306
-0.086636
0.0527923
-0.0881151
0.0547407
-0.0896096
0.0566773
-0.0911154
0.0586043
-0.09263
0.060524
-0.0941508
0.0624387
-0.0956761
0.064351
-0.0972042
0.0662639
-0.0987343
0.0681803
-0.100266
0.0701035
-0.101798
0.0720363
-0.103338
-0.10482
0.0739801
0.000601026
0.0008297
0.00311868
-0.00768111
0.00779614
-0.0227497
0.0138297
-0.0396136
0.0200466
-0.0547036
0.0254654
-0.0659557
0.0296651
-0.0731191
0.0327489
-0.0771319
0.0350849
-0.0792821
0.0370485
-0.0806207
0.0388887
-0.0817607
0.0407171
-0.082951
0.0425593
-0.0842403
0.0444072
-0.0856065
0.046249
-0.087021
0.0480787
-0.0884656
0.0498949
-0.0899313
0.0516989
-0.0914136
0.0534926
-0.0929092
0.0552781
-0.0944154
0.0570574
-0.0959301
0.0588328
-0.0974515
0.0606069
-0.0989783
0.0623823
-0.10051
0.0641617
-0.102045
0.0659482
-0.103585
0.0677442
-0.105134
-0.106626
0.0695509
0.000745688
8.40113e-05
0.00365868
-0.0105941
0.00871008
-0.0278011
0.0148022
-0.0457057
0.0206466
-0.060548
0.0254033
-0.0707123
0.0288926
-0.0766084
0.031402
-0.0796412
0.0333584
-0.0812385
0.0350963
-0.0823587
0.03679
-0.0834544
0.0384936
-0.0846545
0.0402059
-0.0859526
0.0419145
-0.0873151
0.0436114
-0.0887179
0.0452944
-0.0901487
0.0469645
-0.0916014
0.0486235
-0.0930725
0.0502731
-0.0945588
0.0519154
-0.0960577
0.0535523
-0.097567
0.055186
-0.0990852
0.0568189
-0.100611
0.0584534
-0.102144
0.0600923
-0.103684
0.0617382
-0.105231
0.0633931
-0.106789
-0.108292
0.0650582
0.000908415
-0.000824404
0.00421705
-0.0139027
0.00954893
-0.033133
0.0155429
-0.0516997
0.0208913
-0.0658964
0.0249623
-0.0747833
0.0278153
-0.0794614
0.0298678
-0.0816937
0.0315463
-0.082917
0.0331158
-0.0839282
0.0346807
-0.0850193
0.0362564
-0.0862302
0.0378314
-0.0875276
0.0393954
-0.0888792
0.0409451
-0.0902676
0.0424808
-0.0916844
0.0440043
-0.0931249
0.0455172
-0.0945855
0.0470215
-0.0960631
0.0485189
-0.0975551
0.0500113
-0.0990595
0.051501
-0.100575
0.05299
-0.1021
0.0544807
-0.103635
0.0559756
-0.105179
0.0574772
-0.106732
0.0589872
-0.108299
-0.109811
0.0605063
0.00108834
-0.00191275
0.00477447
-0.0175888
0.0102782
-0.0386367
0.0160304
-0.0574519
0.0208018
-0.0706678
0.024209
-0.0781905
0.0265203
-0.0817728
0.0282214
-0.0833948
0.0296936
-0.0843891
0.0311238
-0.0853584
0.0325618
-0.0864574
0.0340029
-0.0876712
0.0354347
-0.0889594
0.0368515
-0.0902961
0.0382532
-0.0916692
0.0396411
-0.0930723
0.0410172
-0.094501
0.0423832
-0.0959515
0.0437408
-0.0974206
0.0450916
-0.0989059
0.0464377
-0.100406
0.047781
-0.101918
0.0491237
-0.103443
0.0504677
-0.104979
0.0518156
-0.106527
0.0531694
-0.108086
0.0545309
-0.109661
-0.11118
0.0558999
0.00128348
-0.00319623
0.00530986
-0.0216152
0.0108695
-0.0441964
0.0162592
-0.0628416
0.0204148
-0.0748233
0.0232123
-0.080988
0.0250803
-0.0836408
0.0265145
-0.084829
0.0278242
-0.0856989
0.0291252
-0.0866594
0.0304318
-0.0877639
0.031732
-0.0889713
0.0330172
-0.0902446
0.0342857
-0.0915647
0.0355389
-0.0929224
0.0367786
-0.094312
0.0380066
-0.095729
0.0392245
-0.0971694
0.0404341
-0.0986301
0.0416369
-0.100109
0.0428348
-0.101604
0.0440298
-0.103113
0.0452237
-0.104637
0.0464185
-0.106174
0.0476166
-0.107725
0.0488193
-0.109289
0.0500293
-0.110871
-0.112394
0.0512439
0.00149066
-0.00468689
0.00580293
-0.0259275
0.0113021
-0.0496955
0.0162375
-0.067777
0.0197753
-0.0783611
0.0220363
-0.0832489
0.023551
-0.0851555
0.0247791
-0.0860571
0.0259489
-0.0868687
0.0271205
-0.087831
0.0282894
-0.0889329
0.0294445
-0.0901264
0.0305815
-0.0913816
0.0317012
-0.0926844
0.0328056
-0.0940268
0.0338965
-0.0954029
0.0349756
-0.0968081
0.0360445
-0.0982383
0.0371048
-0.0996904
0.0381581
-0.101162
0.0392063
-0.102652
0.040251
-0.104158
0.0412941
-0.10568
0.0423374
-0.107217
0.0433832
-0.108771
0.044432
-0.110337
0.0454882
-0.111927
-0.113451
0.0465446
0.00170746
-0.00639434
0.00623489
-0.0304549
0.0115631
-0.0550238
0.0159846
-0.0721985
0.0189317
-0.0813082
0.020736
-0.0850532
0.0219722
-0.0863917
0.0230331
-0.087118
0.0240711
-0.0879068
0.0251087
-0.0888686
0.0261351
-0.0899592
0.0271426
-0.091134
0.0281308
-0.0923698
0.0291015
-0.093655
0.0300567
-0.094982
0.0309981
-0.0963444
0.0319275
-0.0977375
0.0328464
-0.0991572
0.0337564
-0.1006
0.0346591
-0.102065
0.035556
-0.103549
0.0364488
-0.105051
0.0373393
-0.10657
0.038229
-0.108107
0.0391201
-0.109662
0.0400127
-0.11123
0.0409133
-0.112828
-0.114348
0.0418107
0.00192785
-0.0083222
0.00658873
-0.0351158
0.0116509
-0.060086
0.0155275
-0.0760751
0.0179308
-0.0837115
0.0193556
-0.086478
0.02037
-0.0874061
0.0212851
-0.0880332
0.0221913
-0.088813
0.0230899
-0.0897671
0.0239703
-0.0908396
0.0248294
-0.091993
0.0256685
-0.0932089
0.0264898
-0.0944764
0.0272954
-0.0957875
0.0280869
-0.0971359
0.0288659
-0.0985165
0.0296341
-0.0999253
0.0303928
-0.101359
0.0311436
-0.102816
0.031888
-0.104293
0.0326275
-0.10579
0.0333636
-0.107306
0.034098
-0.108841
0.0348324
-0.110396
0.0355667
-0.111964
0.0363094
-0.11357
-0.115086
0.0370476
0.00214395
-0.0104662
0.00685278
-0.0398246
0.0115718
-0.0648049
0.0148973
-0.0794007
0.0168145
-0.0856287
0.0179282
-0.0875917
0.01876
-0.0882379
0.0195387
-0.0888119
0.0203096
-0.0895839
0.021065
-0.0905224
0.0217978
-0.0915724
0.0225079
-0.0927032
0.0231978
-0.0938987
0.0238696
-0.0951481
0.0245251
-0.0964431
0.0251662
-0.097777
0.0257943
-0.0991447
0.026411
-0.100542
0.0270177
-0.101966
0.0276157
-0.103414
0.0282066
-0.104884
0.0287916
-0.106375
0.029372
-0.107887
0.0299493
-0.109418
0.0305248
-0.110972
0.0310988
-0.112538
0.0316795
-0.114151
-0.115664
0.0322572
0.00234578
-0.0128119
0.00702272
-0.0445016
0.0113376
-0.0691198
0.0141256
-0.0821887
0.0156188
-0.0871219
0.0164772
-0.0884501
0.0171509
-0.0889116
0.0177951
-0.0894561
0.0184265
-0.0902153
0.0190359
-0.0911318
0.0196203
-0.0921568
0.0201815
-0.0932644
0.020722
-0.0944392
0.021244
-0.0956701
0.0217493
-0.0969484
0.0222396
-0.0982673
0.0227164
-0.0996214
0.0231811
-0.101007
0.0236351
-0.10242
0.0240797
-0.103858
0.0245162
-0.10532
0.0249457
-0.106805
0.0253693
-0.10831
0.0257882
-0.109837
0.0262028
-0.111386
0.0266151
-0.112951
0.0270276
-0.114564
-0.116077
0.0274407
0.00252538
-0.0153373
0.00709528
-0.0490715
0.010964
-0.0729885
0.0132431
-0.0844678
0.0143725
-0.0882513
0.0150184
-0.089096
0.015547
-0.0894402
0.0160549
-0.089964
0.0165432
-0.0907036
0.0170052
-0.0915939
0.017441
-0.0925926
0.0178532
-0.0936766
0.0182443
-0.0948303
0.0186164
-0.0960423
0.0189714
-0.0973034
0.0193107
-0.0986066
0.0196358
-0.0999466
0.0199482
-0.101319
0.0202492
-0.102721
0.0205399
-0.104149
0.0208215
-0.105602
0.021095
-0.107078
0.0213612
-0.108577
0.021621
-0.110097
0.0218736
-0.111639
0.0221225
-0.1132
0.022363
-0.114804
-0.116325
0.0226106
0.00267626
-0.0180136
0.00707044
-0.0534656
0.0104686
-0.0763867
0.0122777
-0.0862769
0.0130977
-0.0890713
0.0135613
-0.0895596
0.0139504
-0.0898294
0.0143188
-0.0903323
0.0146616
-0.0910464
0.0149757
-0.0919079
0.0152629
-0.0928798
0.0155262
-0.0939398
0.015768
-0.0950721
0.0159903
-0.0962646
0.0161948
-0.0975079
0.0163831
-0.0987949
0.0165565
-0.10012
0.0167164
-0.101479
0.0168641
-0.102868
0.0170005
-0.104285
0.017127
-0.105728
0.0172443
-0.107195
0.0173533
-0.108686
0.0174544
-0.110198
0.0175469
-0.111731
0.0176332
-0.113286
0.0177027
-0.114874
-0.116407
0.0177848
0.00279317
-0.0208067
0.00695128
-0.0576237
0.00987041
-0.0793058
0.0112538
-0.0876603
0.0118108
-0.0896283
0.0121117
-0.0898606
0.0123623
-0.0900799
0.0125881
-0.0905582
0.0127842
-0.0912425
0.0129502
-0.0920738
0.013089
-0.0930187
0.0132036
-0.0940545
0.0132963
-0.0951648
0.013369
-0.0963372
0.0134232
-0.0975621
0.0134605
-0.0988322
0.0134821
-0.100142
0.0134895
-0.101486
0.0134837
-0.102863
0.0134658
-0.104268
0.0134369
-0.105699
0.013398
-0.107157
0.0133501
-0.108638
0.013294
-0.110142
0.0132303
-0.111668
0.0131584
-0.113214
0.0130558
-0.114771
0.012943
-0.116294
-0.0487606
-0.00724218
0.00868106
-0.0500617
-0.00858032
0.00988135
-0.0511896
-0.00989761
0.0110256
-0.0521019
-0.0111648
0.0120771
-0.0527535
-0.0123427
0.0129943
-0.0530997
-0.0133889
0.0137351
-0.0530965
-0.0142618
0.0142585
-0.0527009
-0.014915
0.0145194
-0.0518718
-0.0153025
0.0144734
-0.0505734
-0.0153823
0.0140839
-0.0487783
-0.0151171
0.0133221
-0.0464698
-0.0144776
0.0121691
-0.043642
-0.0134474
0.0106196
-0.0403013
-0.0120219
0.00868118
-0.036461
-0.0102129
0.00637256
-0.0321512
-0.00805363
0.00374386
-0.0273678
-0.00559203
0.000808562
-0.0223836
-0.00290861
-0.00207553
-0.0172588
-5.29709e-05
-0.00507183
0.00273117
-0.0120984
-0.00789158
-0.0363954
-0.00627896
-0.0373073
-0.00766847
-0.0381464
-0.00905848
-0.0388946
-0.0104166
-0.0395286
-0.0117087
-0.0400201
-0.0128974
-0.0403383
-0.0139436
-0.0404465
-0.0148068
-0.0403018
-0.0154471
-0.0398572
-0.0158269
-0.039063
-0.0159113
-0.0378712
-0.0156694
-0.0362403
-0.0150782
-0.0341379
-0.0141243
-0.031546
-0.0128048
-0.028469
-0.0111306
-0.0249313
-0.00912974
-0.0209862
-0.00685369
-0.0166738
-0.00436537
-0.00167975
-0.0122629
-0.0169037
-0.00629521
-0.0168618
-0.00771039
-0.016779
-0.00914131
-0.0166615
-0.010534
-0.0165142
-0.0118561
-0.0163374
-0.0130742
-0.0161296
-0.0141514
-0.0158861
-0.0150502
-0.0155972
-0.015736
-0.0152455
-0.0161787
-0.0148037
-0.0163531
-0.0142345
-0.0162386
-0.0134919
-0.0158209
-0.0125251
-0.0150911
-0.0112828
-0.014047
-0.00972009
-0.0126933
-0.00780561
-0.0110442
-0.00554317
-0.00911612
-0.00294281
-0.00696573
-0.00459792
-2.46332e-05
0.0052394
-0.00742967
0.00639174
-0.00886274
0.00757633
-0.0103259
0.00877758
-0.0117353
0.0099724
-0.0130509
0.0111412
-0.0142429
0.0122645
-0.0152747
0.0133221
-0.0161078
0.0142953
-0.0167092
0.0151699
-0.0170533
0.0159396
-0.0171228
0.0166084
-0.0169075
0.0171927
-0.0164051
0.0177213
-0.0156197
0.0182353
-0.0145611
0.0187852
-0.0132432
0.0194253
-0.0116842
0.0202101
-0.00990098
0.0211789
-0.00793455
-0.0057417
0.0223227
0.0279998
-0.00967961
0.0302705
-0.0111335
0.0325381
-0.0125935
0.0347829
-0.0139801
0.0369738
-0.0152418
0.0390769
-0.016346
0.0410595
-0.0172573
0.0428899
-0.0179383
0.0445383
-0.0183576
0.0459786
-0.0184936
0.0471903
-0.0183345
0.0481601
-0.0178773
0.0488826
-0.0171276
0.049362
-0.0160991
0.0496131
-0.0148122
0.0496622
-0.0132923
0.0495467
-0.0115687
0.0493154
-0.00966969
0.0490173
-0.00763644
-0.00546984
0.0487454
0.050978
-0.0129977
0.054281
-0.0144365
0.057519
-0.0158315
0.0606489
-0.01711
0.0636299
-0.0182228
0.0664219
-0.019138
0.0689874
-0.0198228
0.0712938
-0.0202447
0.0733142
-0.0203779
0.0750276
-0.020207
0.0764186
-0.0197255
0.0774771
-0.0189358
0.0781977
-0.0178482
0.0785793
-0.0164807
0.0786252
-0.0148581
0.0783439
-0.013011
0.0777492
-0.010974
0.0768644
-0.00878492
0.0757096
-0.00648161
-0.00411869
0.0743584
0.0739292
-0.017166
0.077985
-0.0184923
0.0818595
-0.0197061
0.0854998
-0.0207502
0.0888652
-0.0215883
0.0919218
-0.0221946
0.0946416
-0.0225426
0.0970048
-0.0226078
0.0989996
-0.0223727
0.10062
-0.0218279
0.101866
-0.0209714
0.102739
-0.0198082
0.10324
-0.0183496
0.103373
-0.0166133
0.103138
-0.0146234
0.102536
-0.0124091
0.101566
-0.0100041
0.10023
-0.00744865
0.0985164
-0.00476816
-0.00207141
0.0964691
0.0954319
-0.0216889
0.0997005
-0.0227608
0.103652
-0.0236573
0.107245
-0.0243433
0.110457
-0.0248005
0.113274
-0.025012
0.11569
-0.0249586
0.117706
-0.0246235
0.119329
-0.0239961
0.120573
-0.0230711
0.121449
-0.0218477
0.121971
-0.0203299
0.122147
-0.0185264
0.121985
-0.016451
0.121484
-0.0141219
0.120636
-0.0115619
0.119429
-0.00879702
0.117845
-0.00586458
0.115856
-0.00277844
0.000321068
0.113463
0.113032
-0.0259601
0.116933
-0.0266611
0.120419
-0.0271438
0.123482
-0.0274063
0.126127
-0.0274458
0.128364
-0.0272484
0.130203
-0.0267983
0.131665
-0.0260846
0.132769
-0.0251008
0.13354
-0.0238422
0.133999
-0.0223065
0.134163
-0.020494
0.134045
-0.0184077
0.133647
-0.0160538
0.132968
-0.0134423
0.131994
-0.010588
0.130705
-0.00750835
0.129074
-0.00423391
0.127067
-0.000770878
0.00274086
0.124647
0.124908
-0.0295238
0.12806
-0.0298126
0.130794
-0.0298774
0.133122
-0.0297345
0.135064
-0.0293879
0.136643
-0.0288275
0.137885
-0.0280402
0.138818
-0.0270173
0.139468
-0.0257513
0.139861
-0.0242348
0.140015
-0.0224609
0.139945
-0.0204243
0.13966
-0.0181219
0.139159
-0.0155531
0.138437
-0.0127204
0.137479
-0.00963031
0.136263
-0.00629229
0.134757
-0.0027276
0.132923
0.0010633
0.0049661
0.130697
0.130709
-0.0322815
0.1331
-0.0322035
0.135147
-0.0319241
0.136876
-0.0314633
0.138313
-0.0308252
0.139483
-0.0299977
0.14041
-0.0289668
0.141112
-0.0277199
0.141607
-0.0262458
0.141905
-0.0245332
0.142016
-0.0225713
0.141942
-0.0203509
0.141685
-0.0178647
0.14124
-0.0151076
0.140597
-0.0120772
0.139741
-0.00877453
0.138652
-0.00520331
0.1373
-0.0013761
0.135653
0.00271043
0.00697325
0.133646
0.131715
-0.0344807
0.133645
-0.0341331
0.135335
-0.0336141
0.136807
-0.032936
0.138078
-0.0320957
0.139157
-0.0310768
0.140053
-0.0298632
0.140774
-0.0284411
0.141326
-0.0267972
0.141711
-0.024918
0.14193
-0.0227903
0.141981
-0.0204023
0.14186
-0.0177436
0.141558
-0.0148058
0.141064
-0.0115828
0.14036
-0.00807125
0.139428
-0.00427045
0.138238
-0.00018684
0.136766
0.00418278
0.00878211
0.134957
0.129864
-0.0364572
0.131659