/*--------------------------------*- C++ -*----------------------------------*\
  =========                 |
  \\      /  F ield         | OpenFOAM: The Open Source CFD Toolbox
   \\    /   O peration     | Website:  https://openfoam.org
    \\  /    A nd           | Version:  13
     \\/     M anipulation  |
\*---------------------------------------------------------------------------*/
FoamFile
{
    format      ascii;
    class       volVectorField;
    location    "21";
    object      U;
}
// * * * * * * * * * * * * * * * * * * * * * * * * * * * * * * * * * * * * * //

dimensions      [0 1 -1 0 0 0 0];

internalField   nonuniform List<vector> 
21440
(
(-0.00475025 0.00371449 1.11042e-20)
(-0.0267071 0.0103164 -1.17174e-20)
(-0.0509068 0.0151252 -9.2222e-21)
(-0.0734808 0.0188034 0)
(-0.0935874 0.0222594 8.64077e-21)
(-0.111577 0.0260236 1.01269e-21)
(-0.127913 0.0302573 -2.83346e-21)
(-0.143056 0.034916 3.52781e-21)
(-0.157369 0.0398714 -3.30053e-21)
(-0.171136 0.0449521 3.09246e-21)
(-0.184575 0.0499488 1.11356e-23)
(-0.197848 0.0546141 -1.35949e-21)
(-0.211069 0.0586669 4.56468e-36)
(-0.224308 0.0618005 2.44898e-21)
(-0.237601 0.0636916 2.35129e-21)
(-0.250934 0.0640762 -8.76254e-21)
(-0.264331 0.0626705 4.1419e-21)
(-0.277773 0.0592425 2.01372e-21)
(-0.291228 0.0536148 1.99999e-21)
(-0.304658 0.0456732 7.36634e-21)
(-0.318019 0.0353536 6.57816e-23)
(-0.331278 0.0226678 -6.84022e-21)
(-0.344314 0.00768309 3.26967e-21)
(-0.356853 -0.00934438 3.18928e-21)
(-0.36854 -0.0279358 -9.26084e-21)
(-0.379264 -0.04754 2.91523e-21)
(-0.388685 -0.0676558 -8.45139e-21)
(-0.396665 -0.0876365 0)
(-0.0050014 0.00815122 -1.07655e-20)
(-0.0266883 0.0177726 7.79838e-21)
(-0.0503207 0.0234019 1.22652e-20)
(-0.0721887 0.0270648 1.84115e-20)
(-0.0914932 0.0302689 -8.62332e-21)
(-0.10857 0.0337862 0)
(-0.123859 0.0378682 -3.00837e-20)
(-0.137792 0.0424883 0)
(-0.150703 0.0475132 -2.63401e-20)
(-0.16284 0.0527602 2.47148e-20)
(-0.174385 0.0580084 1.74107e-20)
(-0.185465 0.0629981 5.45219e-21)
(-0.196161 0.067436 0)
(-0.206517 0.0710128 0)
(-0.216579 0.0734123 1.88161e-20)
(-0.226352 0.0743193 0)
(-0.235781 0.0734477 -8.674e-21)
(-0.244817 0.0705235 2.48456e-20)
(-0.253388 0.0653248 -7.86136e-21)
(-0.261404 0.0577056 7.78771e-21)
(-0.268753 0.047615 7.76426e-21)
(-0.275313 0.0351064 0)
(-0.280989 0.0203017 -1.40615e-20)
(-0.285818 0.0034196 1.33322e-20)
(-0.289848 -0.0152632 6.51715e-21)
(-0.292938 -0.0352039 -2.99317e-22)
(-0.294927 -0.0558485 -6.27675e-21)
(-0.295844 -0.0766291 0)
(-0.00551515 0.0123773 0)
(-0.0268516 0.0249089 -4.15215e-20)
(-0.0496035 0.0313406 3.91163e-20)
(-0.0703383 0.034981 -5.96335e-20)
(-0.088334 0.0379099 3.86097e-20)
(-0.103911 0.0411351 3.20869e-20)
(-0.117476 0.0450021 3.00277e-20)
(-0.129422 0.0495032 -7.04226e-21)
(-0.140039 0.0544992 2.62841e-20)
(-0.149531 0.0597963 -3.0989e-20)
(-0.158032 0.0651618 -1.16943e-20)
(-0.165627 0.0703255 0)
(-0.17235 0.074983 0)
(-0.1782 0.0788166 -1.9957e-20)
(-0.183174 0.081512 -1.89679e-20)
(-0.187224 0.0827238 -9.13702e-21)
(-0.190269 0.0821405 -4.4267e-20)
(-0.192229 0.079477 1.75216e-20)
(-0.193017 0.0744993 0)
(-0.192564 0.0670508 0)
(-0.190824 0.0570668 1.63247e-20)
(-0.187775 0.0445851 0)
(-0.183423 0.0297618 -3.01246e-20)
(-0.177794 0.0128583 1.82818e-22)
(-0.17094 -0.00575052 -1.42128e-20)
(-0.162829 -0.0257106 1.30749e-20)
(-0.153288 -0.0463703 3.78019e-20)
(-0.141742 -0.0674321 -4.78052e-20)
(-0.00627174 0.0163119 -8.09132e-21)
(-0.0271949 0.031601 4.13637e-20)
(-0.0487796 0.0388076 -3.40923e-20)
(-0.0679806 0.0424155 1.89619e-24)
(-0.0841893 0.0450405 -2.56382e-20)
(-0.097714 0.0479173 -8.00075e-21)
(-0.108931 0.0514893 0)
(-0.118185 0.0557689 5.60262e-20)
(-0.125716 0.0606115 0)
(-0.131681 0.0658126 1.24337e-20)
(-0.136168 0.071128 3.51026e-20)
(-0.139219 0.0762773 4.43004e-20)
(-0.140826 0.0809426 0)
(-0.140948 0.0847893 -2.50728e-22)
(-0.139555 0.0875154 -1.96488e-20)
(-0.136562 0.0887423 1.85812e-20)
(-0.131897 0.0881542 5.4297e-20)
(-0.125494 0.0854672 -8.76321e-20)
(-0.117304 0.0804522 1.71164e-20)
(-0.107314 0.0729654 8.41834e-20)
(-0.0955551 0.0629487 -6.4535e-20)
(-0.0820583 0.0504267 -3.22693e-20)
(-0.0668857 0.035557 9.24526e-20)
(-0.0500848 0.0185641 -5.98241e-20)
(-0.0317249 -0.000232443 2.81815e-20)
(-0.0117586 -0.0203904 -3.19791e-22)
(0.00928155 -0.0413218 0)
(0.0347872 -0.0625206 2.48706e-20)
(-0.00724595 0.019889 0)
(-0.0277152 0.0377384 0)
(-0.0478793 0.0456787 0)
(-0.0651791 0.0492386 3.63666e-20)
(-0.0791588 0.0515259 5.95847e-20)
(-0.0901249 0.0539914 -9.5667e-20)
(-0.0984336 0.0571778 7.44481e-21)
(-0.104377 0.0611193 -5.6001e-20)
(-0.10815 0.065668 -3.93649e-20)
(-0.109866 0.0706104 -4.94261e-20)
(-0.109577 0.0756906 -8.18074e-20)
(-0.10729 0.0806187 -1.3355e-19)
(-0.102974 0.0850689 -3.66171e-22)
(-0.096578 0.088701 6.08854e-20)
(-0.088063 0.0912031 3.90773e-20)
(-0.077347 0.0922009 0)
(-0.0643994 0.0913815 -1.86592e-20)
(-0.0491967 0.0884676 8.95789e-20)
(-0.0317457 0.0832448 -1.04544e-19)
(-0.0120858 0.0755798 -2.85349e-22)
(0.0096904 0.065413 3.34431e-20)
(0.0335002 0.0527789 3.25854e-20)
(0.0592822 0.0378113 -3.12377e-20)
(0.087003 0.0207112 -3.06523e-20)
(0.116571 0.00177126 -5.89369e-20)
(0.148167 -0.0186216 5.54258e-20)
(0.180625 -0.0400747 1.04956e-19)
(0.219236 -0.0617852 -7.35658e-20)
(-0.00840921 0.0230565 -8.64079e-20)
(-0.0284082 0.0432247 0)
(-0.0469358 0.051839 0)
(-0.0620049 0.0553279 0)
(-0.073353 0.0572399 -2.50187e-24)
(-0.0812998 0.0592313 -1.58979e-20)
(-0.086213 0.0619373 -7.20206e-23)
(-0.0883188 0.065419 1.39446e-20)
(-0.0877812 0.0695294 1.32721e-20)
(-0.0846803 0.0740486 3.7306e-20)
(-0.0790477 0.0787117 4.70181e-20)
(-0.0708766 0.0832221 4.46879e-20)
(-0.0601317 0.0872503 4.26573e-20)
(-0.0467726 0.0904604 -4.08784e-20)
(-0.0307713 0.0925297 0)
(-0.0120806 0.0931023 -3.81884e-20)
(0.00928648 0.0918763 0)
(0.0333108 0.0885883 0)
(0.0599456 0.0830335 -1.06286e-19)
(0.0891183 0.0750884 6.85733e-20)
(0.120742 0.0646919 7.30649e-22)
(0.154743 0.0518848 3.24933e-20)
(0.191092 0.0367671 0)
(0.229776 0.0195242 6.01834e-20)
(0.270671 0.000429192 2.04626e-22)
(0.314019 -0.0201528 5.36658e-20)
(0.358542 -0.0418904 -5.09212e-20)
(0.409536 -0.0640633 4.55495e-20)
(-0.0097312 0.0257794 9.71226e-20)
(-0.0292676 0.0479812 -9.25096e-20)
(-0.0459816 0.0571868 0)
(-0.0585297 0.0605714 0)
(-0.0668831 0.0620743 -6.75751e-20)
(-0.0713829 0.0635201 3.38687e-23)
(-0.0724866 0.0656626 5.94878e-20)
(-0.0703018 0.0685677 5.58713e-20)
(-0.064996 0.0721052 5.26682e-20)
(-0.0566287 0.0760519 -4.96294e-20)
(-0.0452247 0.0801378 4.70107e-20)
(-0.0307799 0.0840634 4.47183e-20)
(-0.0132679 0.0875037 2.10874e-20)
(0.00733047 0.0901267 2.0317e-20)
(0.0310257 0.0916131 1.19222e-19)
(0.0578353 0.0916262 7.69855e-20)
(0.0877196 0.0898822 1.1177e-19)
(0.120651 0.0861282 1.13673e-21)
(0.156573 0.0801767 1.04936e-19)
(0.195418 0.0719114 0)
(0.23716 0.0612638 -9.79811e-20)
(0.281768 0.0482652 -9.42307e-20)
(0.329184 0.0330041 0)
(0.379448 0.0156088 -5.80083e-20)
(0.432452 -0.00369734 5.45676e-20)
(0.488306 -0.0245047 1.02745e-19)
(0.544924 -0.0464907 -1.43955e-19)
(0.607625 -0.0683796 1.38735e-22)
(-0.0111819 0.0280402 7.5876e-20)
(-0.030284 0.0519484 1.00538e-20)
(-0.0450426 0.0616378 0)
(-0.0548174 0.0648735 0)
(-0.0597802 0.0659195 6.71371e-20)
(-0.0605534 0.0667737 4.28122e-23)
(-0.0574181 0.0682722 -7.44036e-20)
(-0.0505262 0.0705035 -4.19931e-20)
(-0.0400305 0.0733597 0)
(-0.0259831 0.0766183 -4.953e-20)
(-0.00840755 0.0800104 4.69354e-20)
(0.0126946 0.083239 4.4667e-20)
(0.0373449 0.0859884 -1.28987e-19)
(0.0655475 0.0879339 8.21109e-20)
(0.0973041 0.0887678 -1.17771e-19)
(0.132632 0.0881768 -1.14307e-19)
(0.171494 0.0858946 -1.0995e-19)
(0.213865 0.0816874 3.56982e-20)
(0.259716 0.0753847 -1.01108e-19)
(0.30903 0.0668653 0)
(0.36181 0.0560334 0)
(0.418058 0.0428734 6.09926e-20)
(0.477746 0.0274329 0)
(0.540665 0.00984894 0)
(0.606064 -0.0096111 0)
(0.673057 -0.0303185 -7.01637e-22)
(0.73837 -0.051831 3.38523e-23)
(0.805913 -0.0720514 8.30399e-20)
(-0.0127343 0.0298402 -7.57551e-20)
(-0.0314437 0.0550897 7.15853e-20)
(-0.0441185 0.065123 0)
(-0.0508345 0.0681401 -1.78964e-20)
(-0.0522083 0.0686978 -5.04711e-20)
(-0.0488512 0.0689284 4.74897e-20)
(-0.0410557 0.0697141 -1.03998e-19)
(-0.0290148 0.0712103 2.80402e-20)
(-0.0128584 0.0733221 -1.57924e-19)
(0.00737169 0.0758345 1.24441e-19)
(0.0316635 0.0784866 -9.44074e-20)
(0.0600183 0.0809894 -8.96382e-20)
(0.0924553 0.0830383 0)
(0.129003 0.0843272 0)
(0.169655 0.0845626 0)
(0.214429 0.0834602 -3.75582e-20)
(0.263292 0.0807849 1.06118e-19)
(0.316279 0.0762947 -6.81653e-20)
(0.3734 0.0697927 -1.25842e-21)
(0.434662 0.0611286 -1.77235e-21)
(0.500036 0.0501883 1.20658e-19)
(0.569204 0.0369251 0)
(0.64137 0.0214204 -9.37967e-22)
(0.715137 0.00397735 5.10767e-20)
(0.788256 -0.0148655 4.88939e-20)
(0.858596 -0.0342513 4.46678e-20)
(0.922669 -0.0537501 -4.28915e-20)
(0.983429 -0.0710327 -7.61311e-20)
(-0.0143622 0.0311942 -1.08705e-20)
(-0.0327138 0.0573846 0)
(-0.0431742 0.0675884 -1.90972e-20)
(-0.0466716 0.0703243 1.43331e-19)
(-0.0441304 0.0703551 1.68522e-20)
(-0.0362093 0.0699214 0)
(-0.0232744 0.0699788 1.1919e-19)
(-0.00552255 0.0707302 -2.80718e-20)
(0.0169492 0.0721024 1.3192e-19)
(0.044129 0.0738961 0)
(0.0760161 0.0758647 9.36959e-20)
(0.112642 0.077735 0)
(0.154029 0.079221 0)
(0.200196 0.0800393 4.01913e-20)
(0.251135 0.079926 -7.55588e-20)
(0.306888 0.078603 7.22071e-20)
(0.367497 0.0758032 -3.41123e-20)
(0.432992 0.0712804 5.74992e-22)
(0.503273 0.0648096 -6.96519e-22)
(0.577908 0.0561995 6.14036e-20)
(0.655942 0.0453603 -1.73543e-19)
(0.735644 0.0323993 5.4319e-20)
(0.814698 0.0175797 -5.041e-22)
(0.890504 0.00135802 -1.46553e-19)
(0.960595 -0.01571 9.08622e-20)
(1.02303 -0.0328094 -2.05954e-21)
(1.07546 -0.0496168 -7.91363e-20)
(1.12016 -0.0639644 6.96031e-20)
(-0.0160443 0.0321298 -1.08993e-20)
(-0.0340584 0.0588335 1.64016e-19)
(-0.0422024 0.0690119 -1.43557e-19)
(-0.0422747 0.0713838 -1.43424e-19)
(-0.0354134 0.0708462 -1.35e-19)
(-0.0224181 0.0697489 0)
(-0.00369653 0.0691098 0)
(0.0205787 0.0691802 1.11959e-19)
(0.0503628 0.0699148 1.05142e-19)
(0.0856778 0.0711385 9.86789e-20)
(0.126547 0.0726308 -1.85649e-19)
(0.172984 0.0741383 8.69378e-20)
(0.225015 0.075402 0)
(0.282624 0.0761541 7.71806e-20)
(0.345926 0.0761068 -3.72424e-20)
(0.414951 0.0749741 3.45333e-20)
(0.489514 0.0724537 6.62052e-20)
(0.569049 0.0682477 1.27702e-19)
(0.652361 0.0621525 -6.03926e-20)
(0.737484 0.0540458 0)
(0.821908 0.0439365 -5.34221e-20)
(0.902958 0.0319762 0)
(0.978023 0.0185043 4.73299e-20)
(1.04478 0.0040065 -4.5142e-20)
(1.10142 -0.0109668 4.25462e-20)
(1.14701 -0.0257329 0)
(1.18094 -0.0400495 0)
(1.20542 -0.0521734 -3.03618e-21)
(-0.0177648 0.0326853 0)
(-0.035438 0.059456 -1.6383e-19)
(-0.0411491 0.0693921 1.53254e-19)
(-0.0374803 0.0712999 0)
(-0.0258088 0.0701724 1.18521e-19)
(-0.00704089 0.0684525 1.59208e-20)
(0.0184013 0.0672213 0)
(0.0503959 0.0667783 -1.12169e-19)
(0.0889524 0.0671139 -1.04855e-19)
(0.134094 0.0680876 -9.78772e-20)
(0.185825 0.0695076 1.82054e-19)
(0.244116 0.0711398 -4.23477e-20)
(0.30906 0.0727216 7.12427e-22)
(0.380745 0.0739768 -2.25068e-19)
(0.458926 0.0745588 1.41053e-19)
(0.542925 0.074131 -3.29679e-20)
(0.631263 0.0723615 -6.35452e-20)
(0.721722 0.0689369 5.92597e-20)
(0.811592 0.0636147 -5.84952e-20)
(0.898018 0.0563177 1.06292e-19)
(0.978178 0.0471312 1.52662e-19)
(1.04958 0.0362919 -4.78464e-20)
(1.11032 0.0241695 -1.34087e-19)
(1.15929 0.0112322 -8.381e-20)
(1.19623 -0.00203088 1.57155e-19)
(1.22173 -0.0150861 -7.38754e-20)
(1.23688 -0.0277303 0)
(1.24393 -0.0386637 0)
(-0.0195121 0.0329054 1.86928e-19)
(-0.0367984 0.0592891 0)
(-0.0398697 0.0687575 1.73032e-19)
(-0.0320564 0.0700854 -1.80486e-19)
(-0.0148779 0.06838 1.70136e-20)
(0.0106543 0.0661424 -1.2758e-19)
(0.0441525 0.0645272 0)
(0.0855379 0.0638814 2.7889e-20)
(0.134805 0.0642385 -2.58072e-20)
(0.191932 0.0654899 -9.54504e-20)
(0.25685 0.0674475 -8.87865e-20)
(0.329767 0.0699009 -8.20929e-20)
(0.410481 0.0725079 -3.865e-20)
(0.498311 0.0749366 1.78874e-19)
(0.591512 0.0767496 -6.75618e-20)
(0.687558 0.0774639 1.26836e-19)
(0.783479 0.0766509 -5.92224e-20)
(0.87609 0.0740035 -1.14203e-19)
(0.96225 0.0693454 -1.11094e-21)
(1.03921 0.0626607 4.7822e-20)
(1.10491 0.0541026 -9.38433e-22)
(1.15815 0.0439671 -8.96074e-20)
(1.19869 0.0326523 1.28621e-19)
(1.22715 0.0206126 7.6553e-20)
(1.24483 0.0082953 -7.25429e-20)
(1.25349 -0.00385226 6.90553e-20)
(1.25502 -0.0156308 6.1287e-20)
(1.25143 -0.0260352 0)
(-0.0212772 0.0328362 -1.75854e-19)
(-0.0380546 0.0583848 2.05824e-20)
(-0.0381551 0.067155 -1.73335e-19)
(-0.0256354 0.0678035 -5.1255e-23)
(-0.00194924 0.0655755 1.02393e-19)
(0.0317414 0.063025 1.60086e-19)
(0.0750999 0.0613767 0)
(0.127992 0.0610224 1.09955e-19)
(0.190326 0.0620231 0)
(0.262051 0.0642863 9.30259e-20)
(0.343246 0.0676084 8.50702e-20)
(0.433457 0.0716982 3.93881e-20)
(0.530885 0.0760842 3.631e-20)
(0.632684 0.0801514 -1.03065e-19)
(0.735537 0.0833253 3.17341e-20)
(0.835732 0.0850575 -6.06548e-20)
(0.929589 0.0849007 -1.13005e-19)
(1.01389 0.0825736 5.00537e-22)
(1.08622 0.0779899 -9.89333e-20)
(1.14522 0.0712541 -5.14423e-20)
(1.19059 0.0626352 4.47535e-20)
(1.22302 0.0525195 4.18416e-20)
(1.24397 0.0413553 -3.96596e-20)
(1.25536 0.0296053 -7.59845e-20)
(1.25925 0.0176945 0)
(1.25766 0.00602198 -8.89544e-22)
(1.25228 -0.00523235 -5.86109e-20)
(1.24448 -0.015204 0)
(-0.0230503 0.0325201 -2.84301e-23)
(-0.0390822 0.056809 -1.03835e-20)
(-0.0357437 0.0646545 0)
(-0.0176531 0.0645672 1.45815e-19)
(0.0139119 0.0619505 -1.37177e-19)
(0.0576212 0.0594322 3.19054e-20)
(0.11307 0.0582825 -1.76854e-19)
(0.179969 0.0589085 -1.08101e-19)
(0.258196 0.0613795 2.44496e-20)
(0.347713 0.0655932 0)
(0.447323 0.071203 -8.19544e-20)
(0.554082 0.077549 3.79686e-20)
(0.664296 0.0839326 -3.47679e-20)
(0.773568 0.0895743 0)
(0.877381 0.0937384 -6.0281e-20)
(0.971672 0.09584 5.63613e-20)
(1.05334 0.0955075 1.6e-19)
(1.12053 0.0926115 5.13269e-20)
(1.17276 0.0872546 9.69752e-20)
(1.21071 0.0797283 -4.69016e-20)
(1.23603 0.070452 -8.4204e-20)
(1.25087 0.0599088 1.16976e-19)
(1.25759 0.0485862 1.45978e-19)
(1.25839 0.0369369 -2.4941e-21)
(1.25517 0.025342 6.4052e-20)
(1.24938 0.0141401 -6.46195e-20)
(1.242 0.0034483 1.12139e-19)
(1.23374 -0.0059324 5.0842e-20)
(-0.0248156 0.0319909 0)
(-0.0397149 0.0546378 1.66768e-19)
(-0.0322752 0.0613488 -1.56072e-19)
(-0.00737007 0.0605464 1.65161e-19)
(0.0339029 0.0578029 -1.72419e-20)
(0.0899236 0.0558393 0)
(0.160041 0.0559121 1.16043e-19)
(0.243866 0.0584106 0)
(0.341135 0.0633981 1.41175e-19)
(0.449766 0.0704587 -2.69512e-22)
(0.565965 0.0788405 7.79096e-20)
(0.684761 0.0876003 3.59575e-20)
(0.800571 0.0957128 0)
(0.908015 0.102228 9.25652e-20)
(1.00271 0.106402 1.44853e-19)
(1.0818 0.107779 -2.15504e-21)
(1.14414 0.106224 -1.03347e-19)
(1.19021 0.101883 -9.37792e-20)
(1.22173 0.0951184 4.49108e-20)
(1.2412 0.0864226 -4.24878e-20)
(1.25137 0.0763364 3.96414e-20)
(1.25485 0.0653838 -1.14608e-19)
(1.25385 0.0540288 -1.40663e-19)
(1.25003 0.0426575 -6.75973e-20)
(1.24451 0.0315628 1.20288e-19)
(1.23802 0.020996 -1.16573e-19)
(1.2309 0.0109855 -1.58195e-19)
(1.22342 0.00230063 5.02882e-20)
(-0.0265441 0.0312698 0)
(-0.0397418 0.0519543 -1.46232e-19)
(-0.0272848 0.0573545 -2.01275e-20)
(0.00615139 0.0559785 -2.95566e-19)
(0.059411 0.0535472 0)
(0.130361 0.0528534 -1.25372e-19)
(0.218111 0.0550791 1.11918e-19)
(0.321921 0.0605722 1.00061e-19)
(0.439086 0.068962 -1.36239e-19)
(0.564822 0.0793694 -1.92167e-22)
(0.69272 0.0905731 -3.81447e-20)
(0.815779 0.101232 0)
(0.927623 0.110107 0)
(1.02349 0.116265 -8.92302e-20)
(1.1008 0.119176 -2.82725e-20)
(1.15919 0.118725 -2.05991e-19)
(1.20016 0.115147 0)
(1.22646 0.108919 3.69161e-21)
(1.24137 0.100638 -4.26234e-20)
(1.24812 0.0909165 4.04341e-20)
(1.24947 0.080316 0)
(1.24752 0.0693043 6.93851e-20)
(1.24368 0.0582461 2.43787e-21)
(1.23878 0.0474146 1.85331e-19)
(1.23324 0.0369946 -1.18581e-19)
(1.22726 0.0271525 5.27134e-20)
(1.22088 0.0178399 1.01034e-19)
(1.21421 0.00982267 4.57601e-20)
(-0.0281884 0.0303646 1.12336e-20)
(-0.0389256 0.0488291 -1.6893e-19)
(-0.020173 0.0528249 3.16942e-19)
(0.0240082 0.0511807 2.97036e-19)
(0.0918799 0.0496985 0)
(0.180726 0.0512086 9.1552e-20)
(0.289065 0.0567318 -8.10127e-20)
(0.413766 0.0661612 -1.93614e-19)
(0.549037 0.0785128 8.69573e-20)
(0.686843 0.092246 -7.85784e-20)
(0.818473 0.105606 -7.22187e-20)
(0.936243 0.116982 -6.5275e-20)
(1.03482 0.125188 0)
(1.11181 0.129602 -5.55787e-20)
(1.16762 0.130154 0)
(1.20481 0.127204 1.00031e-19)
(1.22713 0.121383 9.05489e-20)
(1.23862 0.113418 8.86041e-20)
(1.24293 0.104009 0)
(1.24292 0.0937536 0)
(1.24054 0.0831138 7.1588e-20)
(1.23694 0.0724262 -1.37565e-19)
(1.23271 0.0619231 0)
(1.22806 0.0517659 5.54845e-20)
(1.22304 0.0420535 -1.37498e-21)
(1.21766 0.0328985 -4.09896e-21)
(1.21187 0.0242055 -9.48951e-20)
(1.20578 0.0167638 -4.53092e-20)
(-0.0296732 0.0292692 1.59136e-19)
(-0.0369731 0.0453384 2.05069e-20)
(-0.0102387 0.0479378 -1.93236e-20)
(0.0473801 0.0465353 -1.29943e-19)
(0.132751 0.0468715 0)
(0.24251 0.0517318 0)
(0.372774 0.0616159 -1.04366e-19)
(0.517092 0.0756542 1.16719e-19)
(0.665667 0.0919621 -2.14822e-20)
(0.807667 0.108266 7.66712e-22)
(0.93361 0.122442 0)
(1.03717 0.132948 3.21121e-20)
(1.11591 0.139017 1.48657e-22)
(1.17092 0.14062 2.79531e-20)
(1.20579 0.138278 3.37905e-22)
(1.22533 0.132809 4.72564e-20)
(1.23437 0.125107 -1.34122e-19)
(1.23697 0.115974 8.30242e-20)
(1.23607 0.106047 -1.62951e-21)
(1.23351 0.0957796 3.68865e-20)
(1.23023 0.0854757 0)
(1.2266 0.0753283 0)
(1.22269 0.0654605 0)
(1.21847 0.0559603 -5.77736e-20)
(1.21386 0.0468806 0)
(1.20888 0.0383138 -2.49098e-21)
(1.2035 0.0301378 4.65339e-20)
(1.19785 0.0231831 0)
(-0.0309014 0.0279779 -1.70233e-19)
(-0.0335359 0.041538 1.71054e-19)
(0.0033408 0.0429188 -1.61012e-19)
(0.0773817 0.0424788 1.84291e-20)
(0.183396 0.0457888 1.60428e-20)
(0.315879 0.0551406 -5.70889e-20)
(0.467689 0.0702644 1.51453e-19)
(0.627486 0.0890355 -2.24805e-20)
(0.781875 0.108552 -1.20501e-19)
(0.918858 0.12599 1.09051e-19)
(1.03043 0.139266 0)
(1.11363 0.147353 3.00151e-20)
(1.17002 0.150228 -2.79783e-20)
(1.20422 0.148589 0)
(1.22215 0.14349 0)
(1.22953 0.136027 0)
(1.23091 0.127134 0)
(1.2294 0.117501 3.95621e-20)
(1.22675 0.107578 -1.13977e-19)
(1.22374 0.0976379 3.47731e-20)
(1.2206 0.0878336 3.20002e-20)
(1.21727 0.078258 -1.22902e-19)
(1.21366 0.0689742 5.80393e-20)
(1.2097 0.0600394 0)
(1.20534 0.0514891 -4.92999e-20)
(1.20065 0.0434128 4.52483e-20)
(1.19558 0.0356672 -4.37953e-20)
(1.19031 0.0291336 -3.94196e-20)
(-0.0317633 0.0264809 -1.96253e-19)
(-0.0282371 0.0374606 1.74108e-19)
(0.0214732 0.0380375 -1.6269e-19)
(0.115087 0.0395541 -1.81385e-20)
(0.244348 0.0470966 -1.55443e-20)
(0.400169 0.062067 5.52833e-20)
(0.570474 0.0828023 4.84643e-20)
(0.738994 0.105694 2.16264e-20)
(0.890291 0.126969 -3.82076e-20)
(1.01364 0.14372 3.3871e-20)
(1.10475 0.154441 0)
(1.16524 0.159016 -2.87806e-20)
(1.20068 0.158314 2.69664e-20)
(1.21822 0.153673 0)
(1.22464 0.146453 0)
(1.22517 0.137764 0)
(1.22318 0.128374 0)
(1.22042 0.118745 -3.7924e-20)
(1.2176 0.109122 -3.40176e-20)
(1.21479 0.0996248 0)
(1.21189 0.0903164 -6.21574e-20)
(1.20875 0.0812436 1.17289e-19)
(1.20528 0.0724493 -5.53648e-20)
(1.20146 0.0639832 0)
(1.19728 0.0558739 4.69552e-20)
(1.19282 0.0482122 -8.80489e-20)
(1.18803 0.0408307 0)
(1.1831 0.034669 3.75831e-20)
(-0.0321247 0.0247525 2.07823e-19)
(-0.0206372 0.0331431 -2.07743e-20)
(0.0450193 0.0335943 1.93144e-20)
(0.161504 0.0383968 -1.60745e-19)
(0.315352 0.0513763 0)
(0.493163 0.0727944 0)
(0.676404 0.0988374 -9.37602e-20)
(0.845248 0.124505 8.23431e-20)
(0.984795 0.145648 1.01514e-21)
(1.08814 0.159919 -1.26616e-21)
(1.1562 0.166888 0)
(1.19526 0.167543 8.27364e-20)
(1.21383 0.16355 -4.19621e-22)
(1.22001 0.156615 7.07193e-20)
(1.21997 0.148095 -6.6567e-22)
(1.21754 0.138886 -4.21921e-20)
(1.21462 0.129482 -3.79411e-20)
(1.21185 0.120114 -3.69425e-20)
(1.20924 0.11087 1.04104e-19)
(1.20663 0.101789 -3.23596e-20)
(1.20383 0.0929011 0)
(1.20074 0.0842419 0)
(1.19733 0.0758518 0)
(1.1936 0.0677784 -4.75472e-20)
(1.18958 0.060043 0)
(1.18534 0.0527374 2.08548e-21)
(1.18082 0.0456661 3.82378e-20)
(1.17619 0.0398362 0)
(-0.031831 0.0227501 -1.17372e-20)
(-0.0102579 0.0286483 -1.77167e-19)
(0.0747983 0.02998 3.24209e-19)
(0.2168 0.0394911 2.78088e-19)
(0.395479 0.0591474 0)
(0.591474 0.0872156 1.28761e-19)
(0.780146 0.117506 -1.12569e-19)
(0.940647 0.144069 -1.5905e-19)
(1.06154 0.16313 7.16222e-20)
(1.14168 0.173539 -9.66468e-20)
(1.1875 0.176236 -2.82094e-20)
(1.20893 0.173237 -5.46944e-20)
(1.21575 0.166695 0)
(1.21544 0.158325 -4.71744e-20)
(1.21258 0.149227 0)
(1.20939 0.139968 7.91356e-20)
(1.20654 0.130779 7.68386e-20)
(1.204 0.121726 3.40335e-20)
(1.20154 0.112822 3.31627e-20)
(1.19896 0.104082 0)
(1.19615 0.0955336 -5.67138e-20)
(1.19306 0.0872151 1.82418e-21)
(1.1897 0.0791647 0)
(1.18608 0.0714262 -4.3602e-20)
(1.18221 0.0640114 1.15038e-21)
(1.17818 0.0570133 3.1146e-21)
(1.1739 0.0502056 -3.94835e-22)
(1.16955 0.0446738 -3.37919e-20)
(-0.0307083 0.0204406 0)
(0.00342951 0.0240539 -2.03221e-19)
(0.111604 0.027732 2.12802e-20)
(0.280624 0.0432729 -2.71827e-19)
(0.482779 0.0706319 0)
(0.690928 0.104809 -9.97083e-20)
(0.876635 0.137628 8.71189e-20)
(1.02124 0.162999 9.60568e-20)
(1.11929 0.178337 -5.14177e-20)
(1.1762 0.184152 -1.23366e-19)
(1.20309 0.182741 3.02475e-20)
(1.2118 0.176822 -2.58099e-20)
(1.21163 0.168625 2.44099e-20)
(1.20837 0.15957 -2.18485e-20)
(1.20478 0.150366 -6.19707e-20)
(1.2017 0.141272 -1.16845e-19)
(1.1991 0.132338 -3.65352e-20)
(1.19669 0.123553 -2.86497e-21)
(1.19423 0.114916 3.11698e-20)
(1.1916 0.106446 -2.96735e-20)
(1.18874 0.0981758 0)
(1.18565 0.0901442 5.23088e-20)
(1.18235 0.0823841 9.34622e-20)
(1.17884 0.0749333 -4.32002e-20)
(1.17513 0.0677931 1.5526e-21)
(1.17129 0.0610605 3.92973e-20)
(1.16723 0.0544752 -3.20122e-22)
(1.16313 0.0492134 9.96289e-20)
(-0.0285749 0.0177937 0)
(0.0210067 0.0194942 1.80926e-19)
(0.155938 0.0273811 -1.56003e-19)
(0.352284 0.0502556 1.1576e-19)
(0.574341 0.0856695 1.41823e-20)
(0.787163 0.124691 0)
(0.96183 0.157927 8.33871e-20)
(1.08511 0.180169 0)
(1.1591 0.190724 3.43153e-20)
(1.1953 0.191902 1.20928e-19)
(1.20784 0.187056 5.49202e-20)
(1.20853 0.179137 -2.56135e-20)
(1.20497 0.170075 0)
(1.20086 0.160832 2.26336e-20)
(1.1974 0.151741 6.09077e-20)
(1.19459 0.142846 1.14305e-19)
(1.19211 0.134115 -1.03213e-19)
(1.18967 0.125529 -6.61464e-20)
(1.18713 0.117096 -2.98322e-20)
(1.18443 0.108844 2.84053e-20)
(1.18154 0.100808 -2.58761e-20)
(1.17848 0.093021 -2.29332e-20)
(1.17524 0.0855093 -4.60064e-20)
(1.17185 0.0783049 -8.40374e-20)
(1.16829 0.071399 1.5343e-21)
(1.16463 0.0648952 1.42481e-21)
(1.16078 0.0584958 -3.45045e-20)
(1.15691 0.0534812 -6.42757e-20)
(-0.0252508 0.0147819 1.60739e-22)
(0.0430385 0.0152178 1.15986e-20)
(0.207667 0.0292783 0)
(0.430355 0.0607641 1.29201e-19)
(0.666814 0.103801 -1.08802e-19)
(0.876263 0.145786 -2.29083e-20)
(1.03317 0.177247 -4.09576e-20)
(1.13231 0.19487 -7.16514e-20)
(1.18359 0.200262 -1.63699e-20)
(1.20315 0.197327 0)
(1.206 0.189967 -5.24756e-20)
(1.20243 0.180898 -2.416e-20)
(1.19771 0.171521 2.28922e-20)
(1.19369 0.162329 0)
(1.19052 0.153387 -7.77226e-20)
(1.18785 0.144639 7.29852e-20)
(1.18534 0.136045 1.00817e-19)
(1.18282 0.1276 3.03431e-20)
(1.18019 0.119327 5.64198e-20)
(1.17743 0.111256 -7.90279e-20)
(1.17454 0.103418 5.00094e-20)
(1.17152 0.0958398 -2.18337e-20)
(1.16836 0.0885392 4.55073e-20)
(1.16507 0.0815446 8.21365e-20)
(1.16166 0.0748374 -3.69457e-20)
(1.15818 0.0685306 3.70869e-20)
(1.15451 0.0622848 6.47283e-20)
(1.15085 0.057499 -2.96751e-20)
(-0.0205407 0.0113875 -2.0139e-19)
(0.0700989 0.0116817 -2.23886e-20)
(0.266355 0.0337602 -1.33194e-19)
(0.512923 0.0748467 1.61845e-20)
(0.756761 0.12429 1.17957e-19)
(0.955193 0.166991 6.6925e-20)
(1.08969 0.194716 0)
(1.16443 0.20685 7.01717e-20)
(1.19618 0.207323 0)
(1.20362 0.201142 5.57785e-20)
(1.20076 0.192185 5.24388e-20)
(1.19544 0.182595 6.99863e-20)
(1.19067 0.173188 -2.21489e-20)
(1.18696 0.164099 -1.96304e-20)
(1.18397 0.155255 -1.88713e-20)
(1.18129 0.146587 -3.37792e-20)
(1.17869 0.138075 -1.07983e-21)
(1.17605 0.129733 -6.04697e-20)
(1.17336 0.121589 -5.65186e-20)
(1.17057 0.113669 2.78233e-20)
(1.1677 0.105997 -2.41673e-20)
(1.16473 0.0985944 -2.1915e-20)
(1.16165 0.0914716 2.09133e-20)
(1.15848 0.0846546 -3.74081e-20)
(1.15521 0.0781146 0)
(1.15189 0.0719776 6.6702e-20)
(1.14841 0.0658561 -9.28893e-20)
(1.14495 0.0612851 0)
(-0.0141868 0.00761334 1.88971e-19)
(0.102855 0.00952964 0)
(0.331241 0.0412496 1.29987e-19)
(0.597471 0.0922027 -9.12999e-20)
(0.841059 0.146221 -1.30514e-20)
(1.02206 0.187326 -6.65127e-20)
(1.1318 0.209829 -1.95463e-20)
(1.18396 0.216254 0)
(1.20032 0.212508 0)
(1.19982 0.204044 -5.57207e-20)
(1.19416 0.194226 -4.929e-20)
(1.18846 0.184481 -4.66466e-20)
(1.184 0.175128 2.07604e-20)
(1.18052 0.166097 5.78927e-20)
(1.17756 0.157281 -3.5063e-20)
(1.17479 0.148639 1.14243e-21)
(1.17208 0.140173 3.10728e-20)
(1.16936 0.131907 3.08781e-22)
(1.16663 0.123866 -5.2477e-20)
(1.16384 0.11607 2.632e-20)
(1.161 0.108536 -4.46615e-20)
(1.15809 0.101279 4.23084e-20)
(1.1551 0.0943039 1.83756e-20)
(1.15205 0.0876363 3.75035e-20)
(1.14891 0.0812356 3.3472e-20)
(1.14576 0.0752453 -3.19957e-20)
(1.14244 0.0692211 3.00959e-20)
(1.13916 0.0648548 0)
(-0.0058842 0.00348399 0)
(0.141403 0.00933484 -1.80539e-19)
(0.401139 0.0520797 1.47327e-19)
(0.681383 0.112328 0)
(0.917242 0.168655 1.11715e-19)
(1.07616 0.206052 -1.09317e-20)
(1.16098 0.222445 0)
(1.19379 0.223504 -6.49673e-20)
(1.199 0.216474 -5.81648e-20)
(1.19392 0.206588 -5.25279e-20)
(1.18726 0.196395 9.70313e-20)
(1.18178 0.186637 -6.53059e-20)
(1.17761 0.177306 6.74814e-22)
(1.17421 0.168258 -3.72791e-20)
(1.17118 0.159413 7.15605e-22)
(1.1683 0.150761 1.61021e-20)
(1.1655 0.142318 -2.86535e-20)
(1.16274 0.134107 2.78274e-20)
(1.15998 0.126146 1.25583e-21)
(1.15721 0.118448 2.39574e-20)
(1.15441 0.111024 2.19724e-20)
(1.15157 0.103886 2.04079e-20)
(1.14868 0.0970333 -5.66024e-20)
(1.14574 0.0904906 3.42543e-20)
(1.14274 0.0842039 -6.45342e-20)
(1.13975 0.0783413 3.0404e-20)
(1.13659 0.072388 0)
(1.13348 0.0682212 0)
(0.00458512 -0.000918727 0)
(0.185797 0.0116421 1.87661e-19)
(0.474532 0.0663777 -1.5206e-19)
(0.762151 0.134576 -1.16786e-19)
(0.983637 0.190741 -9.73075e-20)
(1.11776 0.222722 0)
(1.17932 0.232729 0)
(1.19669 0.229163 6.47819e-20)
(1.19452 0.219806 5.81417e-20)
(1.18723 0.209144 5.25613e-20)
(1.18049 0.198818 -9.38729e-20)
(1.17535 0.189045 4.35685e-20)
(1.17133 0.179659 0)
(1.1679 0.17053 3.66128e-20)
(1.16476 0.161618 1.62306e-20)
(1.16179 0.152933 -1.54246e-20)
(1.15894 0.144494 2.87208e-20)
(1.15615 0.136317 -2.96637e-22)
(1.1534 0.128413 2.55874e-20)
(1.15067 0.12079 0)
(1.14792 0.113453 -8.39861e-22)
(1.14516 0.106411 -1.94027e-20)
(1.14236 0.0996567 1.82531e-20)
(1.13955 0.0932173 1.62547e-20)
(1.13667 0.087022 -1.55312e-20)
(1.13384 0.0812719 0)
(1.13084 0.0753619 0)
(1.1279 0.0713968 -4.80403e-20)
(0.0175653 -0.005368 1.35039e-20)
(0.235683 0.0169032 0)
(0.549603 0.0840194 1.71711e-20)
(0.83758 0.158196 1.12861e-19)
(1.03939 0.211783 -1.22435e-20)
(1.14795 0.237177 -9.78721e-21)
(1.18911 0.24106 7.88475e-20)
(1.19499 0.233806 1.51569e-20)
(1.18845 0.222946 4.0506e-20)
(1.18039 0.211903 0)
(1.17394 0.201504 4.61776e-20)
(1.16903 0.191646 0)
(1.16504 0.182131 0)
(1.16153 0.172875 -1.68955e-20)
(1.1583 0.163872 3.15654e-20)
(1.15527 0.155137 -2.90309e-20)
(1.15238 0.146684 1.35845e-20)
(1.1496 0.138522 -1.30374e-21)
(1.14687 0.130655 1.23637e-21)
(1.14418 0.123085 -2.08311e-20)
(1.1415 0.115815 2.01382e-20)
(1.13883 0.108847 -1.84128e-20)
(1.13613 0.102171 -3.29421e-20)
(1.13344 0.095816 1.60829e-20)
(1.1307 0.0896915 -2.90002e-20)
(1.12803 0.084043 -2.59307e-20)
(1.12517 0.0781449 2.53758e-20)
(1.12238 0.074396 2.38489e-20)
(0.033406 -0.0094706 -1.24222e-19)
(0.290352 0.0254245 9.9565e-20)
(0.624486 0.104674 0)
(0.905954 0.182419 1.34719e-20)
(1.0844 0.231294 -5.81584e-20)
(1.16827 0.249507 4.86881e-20)
(1.19255 0.24792 -7.84653e-20)
(1.19051 0.237931 -1.47234e-20)
(1.18172 0.226174 -2.78054e-20)
(1.17364 0.214927 3.51216e-20)
(1.16749 0.204411 -4.284e-20)
(1.1627 0.194381 -1.93493e-20)
(1.15866 0.18468 -1.8406e-20)
(1.15506 0.175269 0)
(1.15177 0.166158 0)
(1.14871 0.157358 1.36016e-20)
(1.14582 0.148874 1.18168e-20)
(1.14306 0.140707 -2.41101e-20)
(1.14037 0.132858 4.36241e-20)
(1.13774 0.125323 -6.01738e-22)
(1.13514 0.1181 2.65712e-22)
(1.13256 0.111188 0)
(1.12998 0.104574 3.20958e-20)
(1.1274 0.0982853 1.47836e-20)
(1.1248 0.0922142 -1.39056e-20)
(1.12228 0.0866591 1.31034e-20)
(1.11957 0.0807374 -1.145e-20)
(1.11693 0.0772392 2.17244e-20)
(0.0523676 -0.012708 1.22827e-19)
(0.348836 0.037392 -9.66143e-21)
(0.697389 0.127846 0)
(0.966118 0.206537 0)
(1.11918 0.249001 4.55528e-20)
(1.18046 0.25998 -1.00181e-20)
(1.19156 0.253802 -1.62538e-20)
(1.18447 0.24191 -3.66979e-20)
(1.17479 0.229626 0)
(1.16697 0.218199 -2.47486e-20)
(1.16104 0.207476 2.23553e-20)
(1.15627 0.197201 2.02836e-20)
(1.15216 0.187277 -1.6733e-20)
(1.1485 0.177694 -3.14271e-20)
(1.14518 0.16846 8.03432e-22)
(1.14211 0.159578 -2.60273e-20)
(1.13924 0.151046 -6.05892e-20)
(1.13652 0.142858 -1.09428e-20)
(1.13389 0.13501 -9.46727e-21)
(1.13133 0.127493 0)
(1.12882 0.120301 0)
(1.12634 0.113429 -2.72687e-22)
(1.12387 0.10686 1.52484e-20)
(1.12142 0.100623 0)
(1.11897 0.0945923 0)
(1.11659 0.0891225 -2.33839e-20)
(1.11403 0.0831411 4.44869e-20)
(1.11151 0.0799519 -2.0706e-20)
(0.0746513 -0.0144618 9.90818e-20)
(0.410091 0.0529322 -7.4345e-20)
(0.766598 0.152873 0)
(1.01748 0.229968 0)
(1.14468 0.264841 -4.40655e-20)
(1.18628 0.26897 -8.082e-22)
(1.18764 0.259143 3.30915e-20)
(1.17766 0.245981 2.90801e-20)
(1.16782 0.233337 2.48178e-20)
(1.16029 0.221664 -2.29867e-20)
(1.15448 0.210644 2.0625e-20)
(1.14967 0.200073 1.86027e-20)
(1.14551 0.189902 1.77093e-20)
(1.14182 0.18013 0)
(1.1385 0.170758 1.46422e-20)
(1.13546 0.16178 5.04402e-20)
(1.13263 0.153185 1.23119e-20)
(1.12996 0.144961 3.61394e-22)
(1.12741 0.137098 4.85441e-20)